       N       E                     dE             d eps       ncg     rms          rms(c)
DAV:   1     0.338516351489E+04    0.33852E+04   -0.17262E+05 24000   0.149E+03
DAV:   2     0.619037899058E+02   -0.33233E+04   -0.31122E+04 27878   0.497E+02
DAV:   3    -0.312925086968E+03   -0.37483E+03   -0.37019E+03 34856   0.160E+02
DAV:   4    -0.332285562607E+03   -0.19360E+02   -0.19271E+02 36640   0.350E+01
DAV:   5    -0.333542688507E+03   -0.12571E+01   -0.12560E+01 41512   0.836E+00    0.620E+01
DAV:   6    -0.273763841517E+03    0.59779E+02   -0.36129E+02 32768   0.539E+01    0.347E+01
DAV:   7    -0.277495322913E+03   -0.37315E+01   -0.39591E+01 35944   0.224E+01    0.153E+01
DAV:   8    -0.278497691712E+03   -0.10024E+01   -0.51734E+00 34688   0.681E+00    0.100E+01
DAV:   9    -0.278781809798E+03   -0.28412E+00   -0.14165E+00 36328   0.575E+00    0.480E+00
DAV:  10    -0.278826042016E+03   -0.44232E-01   -0.36822E-01 33848   0.220E+00    0.161E+00
DAV:  11    -0.278840609359E+03   -0.14567E-01   -0.91284E-02 32232   0.114E+00    0.959E-01
DAV:  12    -0.278845888622E+03   -0.52793E-02   -0.18980E-02 37216   0.511E-01    0.362E-01
DAV:  13    -0.278847206673E+03   -0.13181E-02   -0.30008E-03 31600   0.174E-01    0.229E-01
DAV:  14    -0.278847636640E+03   -0.42997E-03   -0.89808E-04 32168   0.112E-01    0.952E-02
DAV:  15    -0.278847788811E+03   -0.15217E-03   -0.29519E-04 32440   0.638E-02    0.439E-02
DAV:  16    -0.278847823840E+03   -0.35029E-04   -0.82504E-05 32816   0.382E-02    0.257E-02
DAV:  17    -0.278847835275E+03   -0.11436E-04   -0.25853E-05 30936   0.267E-02    0.129E-02
DAV:  18    -0.278847839768E+03   -0.44930E-05   -0.12422E-05 30272   0.109E-02    0.619E-03
DAV:  19    -0.278847840729E+03   -0.96083E-06   -0.27880E-06 32696   0.429E-03    0.373E-03
DAV:  20    -0.278847840765E+03   -0.35881E-07   -0.38969E-07 33448   0.172E-03    0.322E-03
DAV:  21    -0.278847840712E+03    0.52798E-07   -0.94669E-08 26896   0.910E-04    0.306E-03
DAV:  22    -0.278847840727E+03   -0.14570E-07   -0.18061E-08 21312   0.549E-04    0.302E-03
DAV:  23    -0.278847840741E+03   -0.13752E-07   -0.53040E-09 17848   0.342E-04    0.301E-03
DAV:  24    -0.278847840745E+03   -0.45184E-08   -0.32800E-09 16608   0.211E-04
   1 F= -.27884784E+03 E0= -.27884784E+03  d E =0.000000E+00  mag=     4.0000
 imaginary and real dielectric function
