 vasp.5.4.4.18Apr17-6-g9f103f2a35 (build Nov 08 2017 09:05:29) complex          
  
 executed on          Intel_17.33 date 2019.01.30  06:59:36
 running on   16 total cores
 distrk:  each k-point on   16 cores,    1 groups
 distr:  one band on NCORES_PER_BAND=  16 cores,    1 groups


--------------------------------------------------------------------------------------------------------


 INCAR:
 POTCAR:    PAW_PBE Ba_sv 06Sep2000               
 POTCAR:    PAW_PBE K_sv 06Sep2000                
 POTCAR:    PAW_PBE Ni_pv 06Sep2000               
 POTCAR:    PAW_PBE Nb_sv 25May2007               
 POTCAR:    PAW_PBE O 08Apr2002                   

 ----------------------------------------------------------------------------- 
|                                                                             |
|           W    W    AA    RRRRR   N    N  II  N    N   GGGG   !!!           |
|           W    W   A  A   R    R  NN   N  II  NN   N  G    G  !!!           |
|           W    W  A    A  R    R  N N  N  II  N N  N  G       !!!           |
|           W WW W  AAAAAA  RRRRR   N  N N  II  N  N N  G  GGG   !            |
|           WW  WW  A    A  R   R   N   NN  II  N   NN  G    G                |
|           W    W  A    A  R    R  N    N  II  N    N   GGGG   !!!           |
|                                                                             |
|      For optimal performance we recommend to set                            |
|        NCORE= 4 - approx SQRT( number of cores)                             |
|      NCORE specifies how many cores store one orbital (NPAR=cpu/NCORE).     |
|      This setting can  greatly improve the performance of VASP for DFT.     |
|      The default,   NCORE=1            might be grossly inefficient         |
|      on modern multi-core architectures or massively parallel machines.     |
|      Do your own testing !!!!                                               |
|      Unfortunately you need to use the default for GW and RPA calculations. |
|      (for HF NCORE is supported but not extensively tested yet)             |
|                                                                             |
 ----------------------------------------------------------------------------- 

 POTCAR:    PAW_PBE Ba_sv 06Sep2000               
   VRHFIN =Ba: 5s5p6s                                                           
   LEXCH  = PE                                                                  
   EATOM  =   700.8560 eV,   51.5115 Ry                                         
                                                                                
   TITEL  = PAW_PBE Ba_sv 06Sep2000                                             
   LULTRA =        F    use ultrasoft PP ?                                      
   IUNSCR =        1    unscreen: 0-lin 1-nonlin 2-no                           
   RPACOR =    2.400    partial core radius                                     
   POMASS =  137.327; ZVAL   =   10.000    mass and valenz                      
   RCORE  =    2.800    outmost cutoff radius                                   
   RWIGS  =    3.740; RWIGS  =    1.979    wigner-seitz radius (au A)           
   ENMAX  =  187.181; ENMIN  =  140.386 eV                                      
   RCLOC  =    2.516    cutoff for local pot                                    
   LCOR   =        T    correct aug charges                                     
   LPAW   =        T    paw PP                                                  
   EAUG   =  351.165                                                            
   DEXC   =    0.000                                                            
   RMAX   =    2.865    core radius for proj-oper                               
   RAUG   =    1.300    factor for augmentation sphere                          
   RDEP   =    2.976    radius for radial grids                                 
   RDEPT  =    2.289    core radius for aug-charge                              
                                                                                
   Atomic configuration                                                         
   13 entries                                                                   
     n  l   j            E        occ.                                          
     1  0  0.50    -37249.5946   2.0000                                         
     2  0  0.50     -5887.1925   2.0000                                         
     2  1  1.50     -5278.3977   6.0000                                         
     3  0  0.50     -1242.7293   2.0000                                         
     3  1  1.50     -1047.6609   6.0000                                         
     3  2  2.50      -764.6158  10.0000                                         
     4  0  0.50      -243.8228   2.0000                                         
     4  1  1.50      -180.9218   6.0000                                         
     4  2  2.50       -89.6477  10.0000                                         
     5  0  0.50       -33.6549   2.0000                                         
     6  0  0.50        -3.2247   1.9900                                         
     5  1  1.50       -18.7193   6.0000                                         
     5  2  2.50        -2.0115   0.0100                                         
   Description                                                                  
     l       E           TYP  RCUT    TYP  RCUT                                 
     0    -33.6549039     23  2.800                                             
     0     -3.2246942     23  2.800                                             
     1    -18.7193050     23  2.700                                             
     1     27.2116520     23  2.700                                             
     2     -2.0115002     23  2.700                                             
     2      0.3057420     23  2.700                                             
  local pseudopotential read in
  partial core-charges read in
  partial kinetic energy density read in
  atomic valenz-charges read in
  non local Contribution for L=           0  read in
    real space projection operators read in
  non local Contribution for L=           0  read in
    real space projection operators read in
  non local Contribution for L=           1  read in
    real space projection operators read in
  non local Contribution for L=           1  read in
    real space projection operators read in
  non local Contribution for L=           2  read in
    real space projection operators read in
  non local Contribution for L=           2  read in
    real space projection operators read in
    PAW grid and wavefunctions read in
 
   number of l-projection  operators is LMAX  =           6
   number of lm-projection operators is LMMAX =          18
 
 POTCAR:    PAW_PBE K_sv 06Sep2000                
   VRHFIN =K:  3s3p4s                                                           
   LEXCH  = PE                                                                  
   EATOM  =   775.0067 eV,   56.9614 Ry                                         
                                                                                
   TITEL  = PAW_PBE K_sv 06Sep2000                                              
   LULTRA =        F    use ultrasoft PP ?                                      
   IUNSCR =        1    unscreen: 0-lin 1-nonlin 2-no                           
   RPACOR =    2.200    partial core radius                                     
   POMASS =   39.098; ZVAL   =    9.000    mass and valenz                      
   RCORE  =    2.300    outmost cutoff radius                                   
   RWIGS  =    3.000; RWIGS  =    1.588    wigner-seitz radius (au A)           
   ENMAX  =  259.264; ENMIN  =  194.448 eV                                      
   RCLOC  =    2.005    cutoff for local pot                                    
   LCOR   =        T    correct aug charges                                     
   LPAW   =        T    paw PP                                                  
   EAUG   =  427.853                                                            
   DEXC   =    0.000                                                            
   RMAX   =    2.358    core radius for proj-oper                               
   RAUG   =    1.300    factor for augmentation sphere                          
   RDEP   =    2.372    radius for radial grids                                 
   RDEPT  =    2.002    core radius for aug-charge                              
                                                                                
   Atomic configuration                                                         
    7 entries                                                                   
     n  l   j            E        occ.                                          
     1  0  0.50     -3522.0595   2.0000                                         
     2  0  0.50      -353.3851   2.0000                                         
     2  1  1.50      -280.0935   6.0000                                         
     3  0  0.50       -35.3419   2.0000                                         
     4  0  0.50        -2.3190   1.0000                                         
     3  1  1.50       -18.8125   6.0000                                         
     3  2  1.50        -1.3606   0.0000                                         
   Description                                                                  
     l       E           TYP  RCUT    TYP  RCUT                                 
     0    -35.3418873     23  2.300                                             
     0     -2.3190215     23  2.300                                             
     1    -18.8124623     23  2.300                                             
     1    -20.4087390     23  2.300                                             
     2     -1.3605826     23  2.300                                             
  local pseudopotential read in
  partial core-charges read in
  partial kinetic energy density read in
  atomic valenz-charges read in
  non local Contribution for L=           0  read in
    real space projection operators read in
  non local Contribution for L=           0  read in
    real space projection operators read in
  non local Contribution for L=           1  read in
    real space projection operators read in
  non local Contribution for L=           1  read in
    real space projection operators read in
  non local Contribution for L=           2  read in
    real space projection operators read in
    PAW grid and wavefunctions read in
 
   number of l-projection  operators is LMAX  =           5
   number of lm-projection operators is LMMAX =          13
 
 POTCAR:    PAW_PBE Ni_pv 06Sep2000               
   VRHFIN =Ni:                                                                  
   LEXCH  = PE                                                                  
   EATOM  =  3501.1230 eV,  257.3253 Ry                                         
                                                                                
   TITEL  = PAW_PBE Ni_pv 06Sep2000                                             
   LULTRA =        F    use ultrasoft PP ?                                      
   IUNSCR =        1    unscreen: 0-lin 1-nonlin 2-no                           
   RPACOR =    1.500    partial core radius                                     
   POMASS =   58.690; ZVAL   =   16.000    mass and valenz                      
   RCORE  =    2.000    outmost cutoff radius                                   
   RWIGS  =    2.000; RWIGS  =    1.058    wigner-seitz radius (au A)           
   ENMAX  =  367.986; ENMIN  =  275.989 eV                                      
   RCLOC  =    1.301    cutoff for local pot                                    
   LCOR   =        T    correct aug charges                                     
   LPAW   =        T    paw PP                                                  
   EAUG   =  703.443                                                            
   DEXC   =    0.000                                                            
   RMAX   =    2.041    core radius for proj-oper                               
   RAUG   =    1.300    factor for augmentation sphere                          
   RDEP   =    2.103    radius for radial grids                                 
   RDEPT  =    1.618    core radius for aug-charge                              
                                                                                
   Atomic configuration                                                         
    8 entries                                                                   
     n  l   j            E        occ.                                          
     1  0  0.50     -8206.4253   2.0000                                         
     2  0  0.50      -976.1748   2.0000                                         
     2  1  1.50      -839.0571   6.0000                                         
     3  0  0.50      -105.9991   2.0000                                         
     3  1  1.50       -66.4603   6.0000                                         
     3  2  2.50        -4.6458   9.0000                                         
     4  0  0.50        -4.4926   1.0000                                         
     4  3  2.50        -1.3606   0.0000                                         
   Description                                                                  
     l       E           TYP  RCUT    TYP  RCUT                                 
     1    -66.4602962     23  1.700                                             
     1     -1.3605826     23  1.700                                             
     2     -4.6457867     23  2.000                                             
     2     -6.0063693     23  2.000                                             
     0     -4.4925576     23  1.900                                             
     0     16.3626226     23  1.900                                             
  local pseudopotential read in
  partial core-charges read in
  partial kinetic energy density read in
  atomic valenz-charges read in
  non local Contribution for L=           1  read in
    real space projection operators read in
  non local Contribution for L=           1  read in
    real space projection operators read in
  non local Contribution for L=           2  read in
    real space projection operators read in
  non local Contribution for L=           2  read in
    real space projection operators read in
  non local Contribution for L=           0  read in
    real space projection operators read in
  non local Contribution for L=           0  read in
    real space projection operators read in
    PAW grid and wavefunctions read in
 
   number of l-projection  operators is LMAX  =           6
   number of lm-projection operators is LMMAX =          18
 
 POTCAR:    PAW_PBE Nb_sv 25May2007               
   VRHFIN =Nb: 4p5s4d                                                           
   LEXCH  = PE                                                                  
   EATOM  =  1555.1913 eV,  114.3033 Ry                                         
                                                                                
   TITEL  = PAW_PBE Nb_sv 25May2007                                             
   LULTRA =        F    use ultrasoft PP ?                                      
   IUNSCR =        1    unscreen: 0-lin 1-nonlin 2-no                           
   RPACOR =    1.800    partial core radius                                     
   POMASS =   92.910; ZVAL   =   13.000    mass and valenz                      
   RCORE  =    2.400    outmost cutoff radius                                   
   RWIGS  =    2.400; RWIGS  =    1.270    wigner-seitz radius (au A)           
   ENMAX  =  293.235; ENMIN  =  219.927 eV                                      
   ICORE  =        3    local potential                                         
   LCOR   =        T    correct aug charges                                     
   LPAW   =        T    paw PP                                                  
   EAUG   =  455.659                                                            
   DEXC   =    0.000                                                            
   RMAX   =    2.456    core radius for proj-oper                               
   RAUG   =    1.300    factor for augmentation sphere                          
   RDEP   =    2.451    radius for radial grids                                 
   RDEPT  =    1.956    core radius for aug-charge                              
                                                                                
   Atomic configuration                                                         
   11 entries                                                                   
     n  l   j            E        occ.                                          
     1  0  0.50    -18805.2457   2.0000                                         
     2  0  0.50     -2630.2869   2.0000                                         
     2  1  1.50     -2348.4046   6.0000                                         
     3  0  0.50      -438.8757   2.0000                                         
     3  1  1.50      -346.7588   6.0000                                         
     3  2  2.50      -196.2560  10.0000                                         
     4  0  0.50       -58.3859   2.0000                                         
     5  0  0.50        -3.9816   1.0000                                         
     4  1  1.50       -34.5141   6.0000                                         
     4  2  2.50        -3.0408   4.0000                                         
     4  3  2.50        -1.3606   0.0000                                         
   Description                                                                  
     l       E           TYP  RCUT    TYP  RCUT                                 
     0    -58.3859094     23  2.200                                             
     0     -3.9816262     23  2.200                                             
     1    -34.5140738     23  2.200                                             
     1     13.6058260     23  2.200                                             
     2     -3.0408010     23  2.200                                             
     2     -0.1283038     23  2.200                                             
     3     -1.3605826     23  2.400                                             
  local pseudopotential read in
  partial core-charges read in
  partial kinetic energy density read in
  atomic valenz-charges read in
  non local Contribution for L=           0  read in
    real space projection operators read in
  non local Contribution for L=           0  read in
    real space projection operators read in
  non local Contribution for L=           1  read in
    real space projection operators read in
  non local Contribution for L=           1  read in
    real space projection operators read in
  non local Contribution for L=           2  read in
    real space projection operators read in
  non local Contribution for L=           2  read in
    real space projection operators read in
    PAW grid and wavefunctions read in
 
   number of l-projection  operators is LMAX  =           6
   number of lm-projection operators is LMMAX =          18
 
 POTCAR:    PAW_PBE O 08Apr2002                   
   VRHFIN =O: s2p4                                                              
   LEXCH  = PE                                                                  
   EATOM  =   432.3788 eV,   31.7789 Ry                                         
                                                                                
   TITEL  = PAW_PBE O 08Apr2002                                                 
   LULTRA =        F    use ultrasoft PP ?                                      
   IUNSCR =        1    unscreen: 0-lin 1-nonlin 2-no                           
   RPACOR =    1.200    partial core radius                                     
   POMASS =   16.000; ZVAL   =    6.000    mass and valenz                      
   RCORE  =    1.520    outmost cutoff radius                                   
   RWIGS  =    1.550; RWIGS  =    0.820    wigner-seitz radius (au A)           
   ENMAX  =  400.000; ENMIN  =  300.000 eV                                      
   ICORE  =        2    local potential                                         
   LCOR   =        T    correct aug charges                                     
   LPAW   =        T    paw PP                                                  
   EAUG   =  605.392                                                            
   DEXC   =    0.000                                                            
   RMAX   =    1.553    core radius for proj-oper                               
   RAUG   =    1.300    factor for augmentation sphere                          
   RDEP   =    1.550    radius for radial grids                                 
   RDEPT  =    1.329    core radius for aug-charge                              
                                                                                
   Atomic configuration                                                         
    4 entries                                                                   
     n  l   j            E        occ.                                          
     1  0  0.50      -514.6923   2.0000                                         
     2  0  0.50       -23.9615   2.0000                                         
     2  1  0.50        -9.0305   4.0000                                         
     3  2  1.50        -9.5241   0.0000                                         
   Description                                                                  
     l       E           TYP  RCUT    TYP  RCUT                                 
     0    -23.9615318     23  1.200                                             
     0     -9.5240782     23  1.200                                             
     1     -9.0304911     23  1.520                                             
     1      8.1634956     23  1.520                                             
     2     -9.5240782      7  1.500                                             
  local pseudopotential read in
  partial core-charges read in
  partial kinetic energy density read in
  kinetic energy density of atom read in
  atomic valenz-charges read in
  non local Contribution for L=           0  read in
    real space projection operators read in
  non local Contribution for L=           0  read in
    real space projection operators read in
  non local Contribution for L=           1  read in
    real space projection operators read in
  non local Contribution for L=           1  read in
    real space projection operators read in
    PAW grid and wavefunctions read in
 
   number of l-projection  operators is LMAX  =           4
   number of lm-projection operators is LMMAX =           8
 
 Optimization of the real space projectors (new method)

 maximal supplied QI-value         = 13.42
 optimisation between [QCUT,QGAM] = [ 11.40, 28.58] = [ 36.42,228.71] Ry 
 Optimized for a Real-space Cutoff    1.54 Angstroem

   l    n(q)    QCUT    max X(q) W(low)/X(q) W(high)/X(q)  e(spline) 
   0     13    11.404    13.244    0.22E-04    0.67E-05    0.16E-05
   0     13    11.404    14.240    0.33E-04    0.75E-05    0.23E-05
   1     13    11.404     4.828    0.17E-05    0.49E-05    0.15E-05
   1     13    11.404     3.934    0.11E-04    0.19E-04    0.69E-05
   2     12    11.404    87.714    0.57E-04    0.14E-03    0.58E-05
   2     12    11.404    59.874    0.55E-04    0.13E-03    0.55E-05
 Optimization of the real space projectors (new method)

 maximal supplied QI-value         = 16.25
 optimisation between [QCUT,QGAM] = [ 11.38, 28.60] = [ 36.24,229.10] Ry 
 Optimized for a Real-space Cutoff    1.29 Angstroem

   l    n(q)    QCUT    max X(q) W(low)/X(q) W(high)/X(q)  e(spline) 
   0     11    11.376    11.234    0.17E-04    0.35E-05    0.81E-07
   0     11    11.376    12.505    0.26E-04    0.75E-05    0.85E-07
   1     11    11.376   167.359    0.17E-03    0.48E-03    0.26E-05
   1     11    11.376   168.875    0.17E-03    0.48E-03    0.26E-05
   2     10    11.376     3.435    0.57E-04    0.14E-05    0.40E-06
 Optimization of the real space projectors (new method)

 maximal supplied QI-value         = 18.90
 optimisation between [QCUT,QGAM] = [ 11.34, 28.53] = [ 36.00,228.01] Ry 
 Optimized for a Real-space Cutoff    1.18 Angstroem

   l    n(q)    QCUT    max X(q) W(low)/X(q) W(high)/X(q)  e(spline) 
   1     10    11.338     2.836    0.85E-05    0.81E-05    0.59E-07
   1     10    11.338     4.023    0.26E-04    0.17E-04    0.13E-06
   2      9    11.338    73.368    0.18E-03    0.12E-03    0.14E-06
   2      9    11.338    69.010    0.18E-03    0.12E-03    0.14E-06
   0     10    11.338    54.797    0.27E-04    0.38E-04    0.19E-06
   0     10    11.338    24.266    0.23E-04    0.33E-04    0.16E-06
 Optimization of the real space projectors (new method)

 maximal supplied QI-value         = 15.68
 optimisation between [QCUT,QGAM] = [ 11.45, 28.55] = [ 36.71,228.19] Ry 
 Optimized for a Real-space Cutoff    1.37 Angstroem

   l    n(q)    QCUT    max X(q) W(low)/X(q) W(high)/X(q)  e(spline) 
   0     12    11.450    10.201    0.23E-04    0.79E-05    0.37E-06
   0     12    11.450     8.174    0.36E-04    0.15E-04    0.72E-06
   1     11    11.450     3.488    0.48E-04    0.13E-04    0.90E-06
   1     11    11.450     4.917    0.25E-03    0.74E-04    0.50E-05
   2     11    11.450   153.744    0.34E-03    0.81E-03    0.70E-05
   2     11    11.450   126.342    0.34E-03    0.81E-03    0.70E-05
 Optimization of the real space projectors (new method)

 maximal supplied QI-value         = 24.76
 optimisation between [QCUT,QGAM] = [ 11.39, 28.47] = [ 36.31,226.95] Ry 
 Optimized for a Real-space Cutoff    0.96 Angstroem

   l    n(q)    QCUT    max X(q) W(low)/X(q) W(high)/X(q)  e(spline) 
   0      8    11.387    20.381    0.29E-03    0.90E-04    0.13E-06
   0      8    11.387    15.268    0.31E-03    0.97E-04    0.14E-06
   1      8    11.387     5.964    0.14E-03    0.34E-03    0.12E-06
   1      8    11.387     5.382    0.12E-03    0.29E-03    0.11E-06
  PAW_PBE Ba_sv 06Sep2000               :
 energy of atom  1       EATOM= -700.8560
 kinetic energy error for atom=    0.0005 (will be added to EATOM!!)
  PAW_PBE K_sv 06Sep2000                :
 energy of atom  2       EATOM= -775.0067
 kinetic energy error for atom=    0.0017 (will be added to EATOM!!)
  PAW_PBE Ni_pv 06Sep2000               :
 energy of atom  3       EATOM=-3501.1230
 kinetic energy error for atom=    0.0690 (will be added to EATOM!!)
  PAW_PBE Nb_sv 25May2007               :
 energy of atom  4       EATOM=-1555.1913
 kinetic energy error for atom=    0.0069 (will be added to EATOM!!)
  PAW_PBE O 08Apr2002                   :
 energy of atom  5       EATOM= -432.3788
 kinetic energy error for atom=    0.0224 (will be added to EATOM!!)
 
 
 POSCAR:  vasp                                   
  positions in direct lattice
  velocities in cartesian coordinates
 exchange correlation table for  LEXCH =        8
   RHO(1)=    0.500       N(1)  =     2000
   RHO(2)=  100.500       N(2)  =     4000
 


--------------------------------------------------------------------------------------------------------


 ion  position               nearest neighbor table
   1  0.989  0.977  0.018-  28 2.66  22 2.70  35 2.77  39 2.81  18 2.82  32 2.86  36 2.90  27 2.90
                            24 2.93  19 2.96  31 3.17  10 3.45   9 3.49  16 3.51  14 3.53  13 3.55
   2  0.511  0.523  0.018-  29 2.66  22 2.70  34 2.77  38 2.81  18 2.82  33 2.86  37 2.90  26 2.90
                            25 2.93  19 2.96  30 3.17  10 3.45   9 3.49  16 3.51  14 3.53  13 3.55
   3  0.511  0.977  0.018-  28 2.66  22 2.70  34 2.77  38 2.81  18 2.82  32 2.86  36 2.90  26 2.90
                            24 2.93  19 2.96  30 3.17  10 3.45   9 3.49  16 3.51  14 3.53  13 3.55
   4  0.989  0.523  0.018-  29 2.66  22 2.70  35 2.77  39 2.81  18 2.82  33 2.86  37 2.90  27 2.90
                            25 2.93  19 2.96  31 3.17  10 3.45   9 3.49  16 3.51  14 3.53  13 3.55
   5  0.990  0.976  0.507-  23 2.69  35 2.79  20 2.81  32 2.84  39 2.88  16 3.38  13 3.42   8 3.71
                             1 4.12
   6  0.510  0.524  0.507-  23 2.69  34 2.79  20 2.81  33 2.84  38 2.88  16 3.38  13 3.42   7 3.71
                             2 4.12
   7  0.510  0.976  0.507-  23 2.69  34 2.79  20 2.81  32 2.84  38 2.88  16 3.38  13 3.42   6 3.71
                             3 4.12
   8  0.990  0.524  0.507-  23 2.69  35 2.79  20 2.81  33 2.84  39 2.88  16 3.38  13 3.42   5 3.71
                             4 4.12
   9  0.250  0.750  0.773-  38 2.07  39 2.07  18 2.15   4 3.49   1 3.49   2 3.49   3 3.49
  10  0.750  0.750  0.274-  34 2.10  35 2.10  23 2.11  32 2.19  33 2.19   2 3.45   3 3.45   4 3.45
                             1 3.45
  11  0.250  0.250  0.288-  17 1.88  24 1.96  25 1.96  26 1.97  27 1.97   2 3.83   3 3.83   4 3.83
                             1 3.83
  12  0.250  0.250  0.743-  28 1.86  29 1.86  17 1.95  30 2.03  31 2.03   2 3.85   3 3.85   4 3.85
                             1 3.85
  13  0.250  0.750  0.274-  20 1.93  34 1.96  35 1.96  18 2.06  24 2.17  25 2.17   7 3.42   8 3.42
                             5 3.42   6 3.42   3 3.55   4 3.55   1 3.55   2 3.55
  14  0.750  0.250  0.246-  32 1.93  33 1.93  19 1.95  26 2.13  27 2.13  21 2.22   3 3.53   4 3.53
                             1 3.53   2 3.53
  15  0.750  0.250  0.735-  21 1.89  36 2.00  37 2.00  30 2.03  31 2.03  19 2.35   3 3.80   4 3.80
                             1 3.80   2 3.80
  16  0.750  0.750  0.750-  23 1.90  38 1.99  39 1.99  22 2.09  36 2.12  37 2.12   7 3.38   8 3.38
                             5 3.38   6 3.38   3 3.51   4 3.51   1 3.51   2 3.51
  17  0.250  0.250  0.511-  11 1.88  12 1.95
  18  0.250  0.750  0.029-  13 2.06   9 2.15   3 2.82   4 2.82   1 2.82   2 2.82
  19  0.750  0.250  0.014-  14 1.95  15 2.35   3 2.96   4 2.96   1 2.96   2 2.96
  20  0.250  0.750  0.503-  13 1.93   6 2.81   7 2.81   8 2.81   5 2.81
  21  0.750  0.250  0.510-  15 1.89  14 2.22
  22  0.750  0.750  0.999-  16 2.09   2 2.70   3 2.70   4 2.70   1 2.70
  23  0.750  0.750  0.525-  16 1.90  10 2.11   7 2.69   8 2.69   5 2.69   6 2.69
  24  0.250  0.013  0.257-  11 1.96  13 2.17   1 2.93   3 2.93
  25  0.250  0.487  0.257-  11 1.96  13 2.17   2 2.93   4 2.93
  26  0.487  0.250  0.235-  11 1.97  14 2.13   2 2.90   3 2.90
  27  0.013  0.250  0.235-  11 1.97  14 2.13   1 2.90   4 2.90
  28  0.250  0.046  0.838-  12 1.86   3 2.66   1 2.66
  29  0.250  0.454  0.838-  12 1.86   4 2.66   2 2.66
  30  0.500  0.250  0.751-  15 2.03  12 2.03   2 3.17   3 3.17
  31  1.000  0.250  0.751-  15 2.03  12 2.03   1 3.17   4 3.17
  32  0.750  0.016  0.264-  14 1.93  10 2.19   5 2.84   7 2.84   1 2.86   3 2.86
  33  0.750  0.484  0.264-  14 1.93  10 2.19   6 2.84   8 2.84   2 2.86   4 2.86
  34  0.492  0.750  0.260-  13 1.96  10 2.10   2 2.77   3 2.77   6 2.79   7 2.79
  35  0.008  0.750  0.260-  13 1.96  10 2.10   1 2.77   4 2.77   5 2.79   8 2.79
  36  0.750  0.008  0.763-  15 2.00  16 2.12   1 2.90   3 2.90
  37  0.750  0.492  0.763-  15 2.00  16 2.12   2 2.90   4 2.90
  38  0.505  0.750  0.768-  16 1.99   9 2.07   2 2.81   3 2.81   6 2.88   7 2.88
  39  0.995  0.750  0.768-  16 1.99   9 2.07   1 2.81   4 2.81   5 2.88   8 2.88
 
  LATTYP: Found a simple orthorhombic cell.
 ALAT       =     8.1082507785
 B/A-ratio  =     1.0131195483
 C/A-ratio  =     1.0371600604
  
  Lattice vectors:
  
 A1 = (   8.1082507785,   0.0000000000,   0.0000000000)
 A2 = (   0.0000000000,   8.2146273664,   0.0000000000)
 A3 = (   0.0000000000,   0.0000000000,   8.4095538670)


Analysis of symmetry for initial positions (statically):
=====================================================================
 Subroutine PRICEL returns:
 Original cell was already a primitive cell.
 

 Routine SETGRP: Setting up the symmetry group for a 
 simple orthorhombic supercell.


 Subroutine GETGRP returns: Found  4 space group operations
 (whereof  1 operations were pure point group operations)
 out of a pool of  8 trial point group operations.


The static configuration has the point symmetry C_1 .
 The point group associated with its full space group is C_2v.


Analysis of symmetry for dynamics (positions and initial velocities):
=====================================================================
 Subroutine PRICEL returns:
 Original cell was already a primitive cell.
 

 Routine SETGRP: Setting up the symmetry group for a 
 simple orthorhombic supercell.


 Subroutine GETGRP returns: Found  4 space group operations
 (whereof  1 operations were pure point group operations)
 out of a pool of  8 trial point group operations.


The dynamic configuration has the point symmetry C_1 .
 The point group associated with its full space group is C_2v.


Analysis of structural, dynamic, and magnetic symmetry:
=====================================================================
 Subroutine PRICEL returns:
 Original cell was already a primitive cell.
 

 Routine SETGRP: Setting up the symmetry group for a 
 simple orthorhombic supercell.


 Subroutine GETGRP returns: Found  4 space group operations
 (whereof  1 operations were pure point group operations)
 out of a pool of  8 trial point group operations.


The magnetic configuration has the point symmetry C_1 .
 The point group associated with its full space group is C_2v.


 Subroutine INISYM returns: Found  4 space group operations
 (whereof  1 operations are pure point group operations),
 and found     1 'primitive' translations

 
 
 KPOINTS: KPOINTS File                            

Automatic generation of k-mesh.
Space group operators:
 irot       det(A)        alpha          n_x          n_y          n_z        tau_x        tau_y        tau_z
    1     1.000000     0.000001     1.000000     0.000000     0.000000     0.000000     0.000000     0.000000
    2     1.000000   179.999999     0.000000     0.000000     1.000000     0.500000     0.500000     0.000000
    3    -1.000000   179.999999     0.000000     1.000000     0.000000     0.000000     0.500000     0.000000
    4    -1.000000   180.000000     1.000000     0.000000     0.000000     0.500000     0.000000     0.000000
 
 Subroutine IBZKPT returns following result:
 ===========================================
 
 Found     27 irreducible k-points:
 
 Following reciprocal coordinates:
            Coordinates               Weight
  0.083333  0.083333  0.083333      8.000000
  0.250000  0.083333  0.083333      8.000000
  0.416667  0.083333  0.083333      8.000000
  0.083333  0.250000  0.083333      8.000000
  0.250000  0.250000  0.083333      8.000000
  0.416667  0.250000  0.083333      8.000000
  0.083333  0.416667  0.083333      8.000000
  0.250000  0.416667  0.083333      8.000000
  0.416667  0.416667  0.083333      8.000000
  0.083333  0.083333  0.250000      8.000000
  0.250000  0.083333  0.250000      8.000000
  0.416667  0.083333  0.250000      8.000000
  0.083333  0.250000  0.250000      8.000000
  0.250000  0.250000  0.250000      8.000000
  0.416667  0.250000  0.250000      8.000000
  0.083333  0.416667  0.250000      8.000000
  0.250000  0.416667  0.250000      8.000000
  0.416667  0.416667  0.250000      8.000000
  0.083333  0.083333  0.416667      8.000000
  0.250000  0.083333  0.416667      8.000000
  0.416667  0.083333  0.416667      8.000000
  0.083333  0.250000  0.416667      8.000000
  0.250000  0.250000  0.416667      8.000000
  0.416667  0.250000  0.416667      8.000000
  0.083333  0.416667  0.416667      8.000000
  0.250000  0.416667  0.416667      8.000000
  0.416667  0.416667  0.416667      8.000000
 
 Following cartesian coordinates:
            Coordinates               Weight
  0.010278  0.010145  0.009909      8.000000
  0.030833  0.010145  0.009909      8.000000
  0.051388  0.010145  0.009909      8.000000
  0.010278  0.030434  0.009909      8.000000
  0.030833  0.030434  0.009909      8.000000
  0.051388  0.030434  0.009909      8.000000
  0.010278  0.050723  0.009909      8.000000
  0.030833  0.050723  0.009909      8.000000
  0.051388  0.050723  0.009909      8.000000
  0.010278  0.010145  0.029728      8.000000
  0.030833  0.010145  0.029728      8.000000
  0.051388  0.010145  0.029728      8.000000
  0.010278  0.030434  0.029728      8.000000
  0.030833  0.030434  0.029728      8.000000
  0.051388  0.030434  0.029728      8.000000
  0.010278  0.050723  0.029728      8.000000
  0.030833  0.050723  0.029728      8.000000
  0.051388  0.050723  0.029728      8.000000
  0.010278  0.010145  0.049547      8.000000
  0.030833  0.010145  0.049547      8.000000
  0.051388  0.010145  0.049547      8.000000
  0.010278  0.030434  0.049547      8.000000
  0.030833  0.030434  0.049547      8.000000
  0.051388  0.030434  0.049547      8.000000
  0.010278  0.050723  0.049547      8.000000
  0.030833  0.050723  0.049547      8.000000
  0.051388  0.050723  0.049547      8.000000
 
 TETIRR: Found    560 inequivalent tetrahedra from     1296


--------------------------------------------------------------------------------------------------------




 Dimension of arrays:
   k-points           NKPTS =     27   k-points in BZ     NKDIM =     27   number of bands    NBANDS=    214
   number of dos      NEDOS =   9999   number of ions     NIONS =     39
   non local maximal  LDIM  =      6   non local SUM 2l+1 LMDIM =     18
   total plane-waves  NPLWV = 230400
   max r-space proj   IRMAX =   6330   max aug-charges    IRDMAX=  99061
   dimension x,y,z NGX =    60 NGY =   60 NGZ =   64
   dimension x,y,z NGXF=    96 NGYF=   96 NGZF=   96
   support grid    NGXF=   192 NGYF=  192 NGZF=  192
   ions per type =               4   4   2   6  23
   NGX,Y,Z   is equivalent  to a cutoff of  12.30, 12.14, 12.65 a.u.
   NGXF,Y,Z  is equivalent  to a cutoff of  19.68, 19.43, 18.98 a.u.

 SYSTEM =  Bi1Cu1O1Se1_ICSD_189174                 
 POSCAR =   vasp                                   

 Startparameter for this run:
   NWRITE =      2    write-flag & timer
   PREC   = high      normal or accurate (medium, high low for compatibility)
   ISTART =      0    job   : 0-new  1-cont  2-samecut
   ICHARG =      2    charge: 1-file 2-atom 10-const
   ISPIN  =      2    spin polarized calculation?
   LNONCOLLINEAR =      F non collinear calculations
   LSORBIT =      F    spin-orbit coupling
   INIWAV =      1    electr: 0-lowe 1-rand  2-diag
   LASPH  =      F    aspherical Exc in radial PAW
   METAGGA=      F    non-selfconsistent MetaGGA calc.

 Electronic Relaxation 1
   ENCUT  =  500.0 eV  36.75 Ry    6.06 a.u.  14.78 14.98 15.33*2*pi/ulx,y,z
   ENINI  =  500.0     initial cutoff
   ENAUG  =  703.4 eV  augmentation charge cutoff
   NELM   =    120;   NELMIN=  2; NELMDL=  0     # of ELM steps 
   EDIFF  = 0.1E-07   stopping-criterion for ELM
   LREAL  =      T    real-space projection
   NLSPLINE    = F    spline interpolate recip. space projectors
   LCOMPAT=      F    compatible to vasp.4.4
   GGA_COMPAT  = T    GGA compatible to vasp.4.4-vasp.4.6
   LMAXPAW     = -100 max onsite density
   LMAXMIX     =    4 max onsite mixed and CHGCAR
   VOSKOWN=      0    Vosko Wilk Nusair interpolation
   ROPT   =   -0.00040  -0.00040  -0.00040  -0.00040
   ROPT   =   -0.00040
 Ionic relaxation
   EDIFFG = 0.1E-06   stopping-criterion for IOM
   NSW    =      0    number of steps for IOM
   NBLOCK =      1;   KBLOCK =      1    inner block; outer block 
   IBRION =     -1    ionic relax: 0-MD 1-quasi-New 2-CG
   NFREE  =      1    steps in history (QN), initial steepest desc. (CG)
   ISIF   =      3    stress and relaxation
   IWAVPR =     10    prediction:  0-non 1-charg 2-wave 3-comb
   ISYM   =      2    0-nonsym 1-usesym 2-fastsym
   LCORR  =      T    Harris-Foulkes like correction to forces

   POTIM  = 0.5000    time-step for ionic-motion
   TEIN   =    0.0    initial temperature
   TEBEG  =    0.0;   TEEND  =   0.0 temperature during run
   SMASS  =  -3.00    Nose mass-parameter (am)
   estimated Nose-frequenzy (Omega)   =  0.10E-29 period in steps =****** mass=  -0.150E-26a.u.
   SCALEE = 1.0000    scale energy and forces
   NPACO  =    256;   APACO  = 16.0  distance and # of slots for P.C.
   PSTRESS=    0.0 pullay stress

  Mass of Ions in am
   POMASS = 137.33 39.10 58.69 92.91 16.00
  Ionic Valenz
   ZVAL   =  10.00  9.00 16.00 13.00  6.00
  Atomic Wigner-Seitz radii
   RWIGS  =  -1.00 -1.00 -1.00 -1.00 -1.00
  virtual crystal weights 
   VCA    =   1.00  1.00  1.00  1.00  1.00
   NELECT =     324.0000    total number of electrons
   NUPDOWN=      -1.0000    fix difference up-down

 DOS related values:
   EMIN   = -10.00;   EMAX   = 10.00  energy-range for DOS
   EFERMI =   0.00
   ISMEAR =    -5;   SIGMA  =   0.01  broadening in eV -4-tet -1-fermi 0-gaus

 Electronic relaxation 2 (details)
   IALGO  =     38    algorithm
   LDIAG  =      T    sub-space diagonalisation (order eigenvalues)
   LSUBROT=      F    optimize rotation matrix (better conditioning)
   TURBO    =      0    0=normal 1=particle mesh
   IRESTART =      0    0=no restart 2=restart with 2 vectors
   NREBOOT  =      0    no. of reboots
   NMIN     =      0    reboot dimension
   EREF     =   0.00    reference energy to select bands
   IMIX   =      4    mixing-type and parameters
     AMIX     =   0.40;   BMIX     =  1.00
     AMIX_MAG =   1.60;   BMIX_MAG =  1.00
     AMIN     =   0.10
     WC   =   100.;   INIMIX=   1;  MIXPRE=   1;  MAXMIX= -45

 Intra band minimization:
   WEIMIN = 0.0000     energy-eigenvalue tresh-hold
   EBREAK =  0.12E-10  absolut break condition
   DEPER  =   0.30     relativ break condition  

   TIME   =   0.40     timestep for ELM

  volume/ion in A,a.u.               =      14.36        96.92
  Fermi-wavevector in a.u.,A,eV,Ry     =   1.364040  2.577662 25.315077  1.860606
  Thomas-Fermi vector in A             =   2.490391
 
 Write flags
   LWAVE        =      F    write WAVECAR
   LDOWNSAMPLE  =      F    k-point downsampling of WAVECAR
   LCHARG       =      F    write CHGCAR
   LVTOT        =      F    write LOCPOT, total local potential
   LVHAR        =      F    write LOCPOT, Hartree potential only
   LELF         =      F    write electronic localiz. function (ELF)
   LORBIT       =     10    0 simple, 1 ext, 2 COOP (PROOUT), +10 PAW based schemes


 Dipole corrections
   LMONO  =      F    monopole corrections only (constant potential shift)
   LDIPOL =      F    correct potential (dipole corrections)
   IDIPOL =      0    1-x, 2-y, 3-z, 4-all directions 
   EPSILON=  1.0000000 bulk dielectric constant

 LDA+U is selected, type is set to LDAUTYPE =  2
   angular momentum for each species LDAUL =     0    0    2    2    0
   U (eV)           for each species LDAUU =   0.0  0.0  5.1  2.1  0.0
   J (eV)           for each species LDAUJ =   0.0  0.0  0.0  0.0  0.0
 Exchange correlation treatment:
   GGA     =    --    GGA type
   LEXCH   =     8    internal setting for exchange type
   VOSKOWN=      0    Vosko Wilk Nusair interpolation
   LHFCALC =     F    Hartree Fock is set to
   LHFONE  =     F    Hartree Fock one center treatment
   AEXX    =    0.0000 exact exchange contribution

 Linear response parameters
   LEPSILON=     F    determine dielectric tensor
   LRPA    =     F    only Hartree local field effects (RPA)
   LNABLA  =     F    use nabla operator in PAW spheres
   LVEL    =     F    velocity operator in full k-point grid
   LINTERFAST=   F  fast interpolation
   KINTER  =     0    interpolate to denser k-point grid
   CSHIFT  =0.1000    complex shift for real part using Kramers Kronig
   OMEGAMAX=  -1.0    maximum frequency
   DEG_THRESHOLD= 0.2000000E-02 threshold for treating states as degnerate
   RTIME   =   -0.100 relaxation time in fs
  (WPLASMAI=    0.000 imaginary part of plasma frequency in eV, 0.658/RTIME)
   DFIELD  = 0.0000000 0.0000000 0.0000000 field for delta impulse in time
 
 Orbital magnetization related:
   ORBITALMAG=     F  switch on orbital magnetization
   LCHIMAG   =     F  perturbation theory with respect to B field
   DQ        =  0.001000  dq finite difference perturbation B field
   LLRAUG    =     F  two centre corrections for induced B field



--------------------------------------------------------------------------------------------------------


 Static calculation
 charge density and potential will be updated during run
 spin polarized calculation
 Variant of blocked Davidson
 Davidson routine will perform the subspace rotation
 perform sub-space diagonalisation
    after iterative eigenvector-optimisation
 modified Broyden-mixing scheme, WC =      100.0
 initial mixing is a Kerker type mixing with AMIX =  0.4000 and BMIX =      1.0000
 Hartree-type preconditioning will be used
 using additional bands           52
 real space projection scheme for non local part
 use partial core corrections
 calculate Harris-corrections to forces 
   (improved forces if not selfconsistent)
 use gradient corrections 
 use of overlap-Matrix (Vanderbilt PP)
 Fermi weights with tetrahedron method with Bloechl corrections


--------------------------------------------------------------------------------------------------------


  energy-cutoff  :      500.00
  volume of cell :      560.13
      direct lattice vectors                 reciprocal lattice vectors
     8.108250779  0.000000000  0.000000000     0.123331163  0.000000000  0.000000000
     0.000000000  8.214627366  0.000000000     0.000000000  0.121734067  0.000000000
     0.000000000  0.000000000  8.409553867     0.000000000  0.000000000  0.118912372

  length of vectors
     8.108250779  8.214627366  8.409553867     0.123331163  0.121734067  0.118912372


 
 k-points in units of 2pi/SCALE and weight: KPOINTS File                            
   0.01027760  0.01014451  0.00990936       0.037
   0.03083279  0.01014451  0.00990936       0.037
   0.05138798  0.01014451  0.00990936       0.037
   0.01027760  0.03043352  0.00990936       0.037
   0.03083279  0.03043352  0.00990936       0.037
   0.05138798  0.03043352  0.00990936       0.037
   0.01027760  0.05072253  0.00990936       0.037
   0.03083279  0.05072253  0.00990936       0.037
   0.05138798  0.05072253  0.00990936       0.037
   0.01027760  0.01014451  0.02972809       0.037
   0.03083279  0.01014451  0.02972809       0.037
   0.05138798  0.01014451  0.02972809       0.037
   0.01027760  0.03043352  0.02972809       0.037
   0.03083279  0.03043352  0.02972809       0.037
   0.05138798  0.03043352  0.02972809       0.037
   0.01027760  0.05072253  0.02972809       0.037
   0.03083279  0.05072253  0.02972809       0.037
   0.05138798  0.05072253  0.02972809       0.037
   0.01027760  0.01014451  0.04954682       0.037
   0.03083279  0.01014451  0.04954682       0.037
   0.05138798  0.01014451  0.04954682       0.037
   0.01027760  0.03043352  0.04954682       0.037
   0.03083279  0.03043352  0.04954682       0.037
   0.05138798  0.03043352  0.04954682       0.037
   0.01027760  0.05072253  0.04954682       0.037
   0.03083279  0.05072253  0.04954682       0.037
   0.05138798  0.05072253  0.04954682       0.037
 
 k-points in reciprocal lattice and weights: KPOINTS File                            
   0.08333333  0.08333333  0.08333333       0.037
   0.25000000  0.08333333  0.08333333       0.037
   0.41666667  0.08333333  0.08333333       0.037
   0.08333333  0.25000000  0.08333333       0.037
   0.25000000  0.25000000  0.08333333       0.037
   0.41666667  0.25000000  0.08333333       0.037
   0.08333333  0.41666667  0.08333333       0.037
   0.25000000  0.41666667  0.08333333       0.037
   0.41666667  0.41666667  0.08333333       0.037
   0.08333333  0.08333333  0.25000000       0.037
   0.25000000  0.08333333  0.25000000       0.037
   0.41666667  0.08333333  0.25000000       0.037
   0.08333333  0.25000000  0.25000000       0.037
   0.25000000  0.25000000  0.25000000       0.037
   0.41666667  0.25000000  0.25000000       0.037
   0.08333333  0.41666667  0.25000000       0.037
   0.25000000  0.41666667  0.25000000       0.037
   0.41666667  0.41666667  0.25000000       0.037
   0.08333333  0.08333333  0.41666667       0.037
   0.25000000  0.08333333  0.41666667       0.037
   0.41666667  0.08333333  0.41666667       0.037
   0.08333333  0.25000000  0.41666667       0.037
   0.25000000  0.25000000  0.41666667       0.037
   0.41666667  0.25000000  0.41666667       0.037
   0.08333333  0.41666667  0.41666667       0.037
   0.25000000  0.41666667  0.41666667       0.037
   0.41666667  0.41666667  0.41666667       0.037
 
 position of ions in fractional coordinates (direct lattice) 
   0.98942500  0.97732584  0.01751042
   0.51057500  0.52267416  0.01751042
   0.51057500  0.97732584  0.01751042
   0.98942500  0.52267416  0.01751042
   0.98989538  0.97608380  0.50693260
   0.51010462  0.52391620  0.50693260
   0.51010462  0.97608380  0.50693260
   0.98989538  0.52391620  0.50693260
   0.25000000  0.75000000  0.77296126
   0.75000000  0.75000000  0.27421847
   0.25000000  0.25000000  0.28801743
   0.25000000  0.25000000  0.74284111
   0.25000000  0.75000000  0.27426600
   0.75000000  0.25000000  0.24582578
   0.75000000  0.25000000  0.73453733
   0.75000000  0.75000000  0.75043833
   0.25000000  0.25000000  0.51123125
   0.25000000  0.75000000  0.02888150
   0.75000000  0.25000000  0.01424966
   0.25000000  0.75000000  0.50324624
   0.75000000  0.25000000  0.50991937
   0.75000000  0.75000000  0.99901495
   0.75000000  0.75000000  0.52497545
   0.25000000  0.01298045  0.25699972
   0.25000000  0.48701955  0.25699972
   0.48726527  0.25000000  0.23532543
   0.01273473  0.25000000  0.23532543
   0.25000000  0.04597518  0.83798902
   0.25000000  0.45402482  0.83798902
   0.50041844  0.25000000  0.75126690
   0.99958156  0.25000000  0.75126690
   0.75000000  0.01609974  0.26366922
   0.75000000  0.48390026  0.26366922
   0.49189142  0.75000000  0.26001628
   0.00810858  0.75000000  0.26001628
   0.75000000  0.00807536  0.76342888
   0.75000000  0.49192464  0.76342888
   0.50488127  0.75000000  0.76833493
   0.99511873  0.75000000  0.76833493
 
 position of ions in cartesian coordinates  (Angst):
   8.02250600  8.02836758  0.14725485
   4.13987017  4.29357347  0.14725485
   4.13987017  8.02836758  0.14725485
   8.02250600  4.29357347  0.14725485
   8.02632001  8.01816473  4.26307702
   4.13605616  4.30377632  4.26307702
   4.13605616  8.01816473  4.26307702
   8.02632001  4.30377632  4.26307702
   2.02706269  6.16097052  6.50025932
   6.08118808  6.16097052  2.30605500
   2.02706269  2.05365684  2.42209811
   2.02706269  2.05365684  6.24696236
   2.02706269  6.16097052  2.30645466
   6.08118808  2.05365684  2.06728516
   6.08118808  2.05365684  6.17713122
   6.08118808  6.16097052  6.31085159
   2.02706269  2.05365684  4.29922672
   2.02706269  6.16097052  0.24288049
   6.08118808  2.05365684  0.11983325
   2.02706269  6.16097052  4.23207639
   6.08118808  2.05365684  4.28819437
   6.08118808  6.16097052  8.40127003
   6.08118808  6.16097052  4.41480936
   2.02706269  0.10662958  2.16125297
   2.02706269  4.00068411  2.16125297
   3.95086901  2.05365684  1.97898189
   0.10325638  2.05365684  1.97898189
   2.02706269  0.37766901  7.04711382
   2.02706269  3.72964467  7.04711382
   4.05751824  2.05365684  6.31781944
   8.10485793  2.05365684  6.31781944
   6.08118808  0.13225340  2.21734054
   6.08118808  3.97506028  2.21734054
   3.98837901  6.16097052  2.18662094
   0.06574638  6.16097052  2.18662094
   6.08118808  0.06633610  6.42009632
   6.08118808  4.04097759  6.42009632
   4.09370391  6.16097052  6.46135398
   8.06867225  6.16097052  6.46135398
 


--------------------------------------------------------------------------------------------------------


 k-point  1 :   0.0833 0.0833 0.0833  plane waves:   14210
 k-point  2 :   0.2500 0.0833 0.0833  plane waves:   14211
 k-point  3 :   0.4167 0.0833 0.0833  plane waves:   14237
 k-point  4 :   0.0833 0.2500 0.0833  plane waves:   14221
 k-point  5 :   0.2500 0.2500 0.0833  plane waves:   14223
 k-point  6 :   0.4167 0.2500 0.0833  plane waves:   14231
 k-point  7 :   0.0833 0.4167 0.0833  plane waves:   14246
 k-point  8 :   0.2500 0.4167 0.0833  plane waves:   14224
 k-point  9 :   0.4167 0.4167 0.0833  plane waves:   14205
 k-point 10 :   0.0833 0.0833 0.2500  plane waves:   14221
 k-point 11 :   0.2500 0.0833 0.2500  plane waves:   14217
 k-point 12 :   0.4167 0.0833 0.2500  plane waves:   14220
 k-point 13 :   0.0833 0.2500 0.2500  plane waves:   14217
 k-point 14 :   0.2500 0.2500 0.2500  plane waves:   14223
 k-point 15 :   0.4167 0.2500 0.2500  plane waves:   14224
 k-point 16 :   0.0833 0.4167 0.2500  plane waves:   14229
 k-point 17 :   0.2500 0.4167 0.2500  plane waves:   14225
 k-point 18 :   0.4167 0.4167 0.2500  plane waves:   14221
 k-point 19 :   0.0833 0.0833 0.4167  plane waves:   14194
 k-point 20 :   0.2500 0.0833 0.4167  plane waves:   14210
 k-point 21 :   0.4167 0.0833 0.4167  plane waves:   14201
 k-point 22 :   0.0833 0.2500 0.4167  plane waves:   14222
 k-point 23 :   0.2500 0.2500 0.4167  plane waves:   14217
 k-point 24 :   0.4167 0.2500 0.4167  plane waves:   14231
 k-point 25 :   0.0833 0.4167 0.4167  plane waves:   14232
 k-point 26 :   0.2500 0.4167 0.4167  plane waves:   14228
 k-point 27 :   0.4167 0.4167 0.4167  plane waves:   14226

 maximum and minimum number of plane-waves per node :       916      866

 maximum number of plane-waves:     14246
 maximum index in each direction: 
   IXMAX=   14   IYMAX=   14   IZMAX=   15
   IXMIN=  -15   IYMIN=  -15   IZMIN=  -15


 real space projection operators:
  total allocation   :      11358.20 KBytes
  max/ min on nodes  :        864.31        613.69


 parallel 3D FFT for wavefunctions:
    minimum data exchange during FFTs selected (reduces bandwidth)
 parallel 3D FFT for charge:
    minimum data exchange during FFTs selected (reduces bandwidth)


 total amount of memory used by VASP MPI-rank0   223258. kBytes
=======================================================================

   base      :      30000. kBytes
   nonlr-proj:       5256. kBytes
   fftplans  :       8683. kBytes
   grid      :       7088. kBytes
   one-center:         93. kBytes
   wavefun   :     172138. kBytes
 
     INWAV:  cpu time    0.0000: real time    0.0002
 Broyden mixing: mesh for mixing (old mesh)
   NGX = 29   NGY = 29   NGZ = 31
  (NGX  = 96   NGY  = 96   NGZ  = 96)
  gives a total of  26071 points

 initial charge density was supplied:
 charge density of overlapping atoms calculated
 number of electron     324.0000000 magnetization      39.0000000
 keeping initial charge density in first step


--------------------------------------------------------------------------------------------------------


 Maximum index for non-local projection operator          407
 Maximum index for augmentation-charges         5909 (set IRDMAX)


--------------------------------------------------------------------------------------------------------


 First call to EWALD:  gamma=   0.215
 Maximum number of real-space cells 3x 3x 3
 Maximum number of reciprocal cells 3x 3x 3

    FEWALD:  cpu time    0.0025: real time    0.0031


--------------------------------------- Iteration      1(   1)  ---------------------------------------


    POTLOK:  cpu time    0.0878: real time    0.1029
    SETDIJ:  cpu time    0.1266: real time    0.1320
     EDDAV:  cpu time   58.4417: real time   58.4824
 BZINTS: Fermi energy: 19.134989;324.000000 electrons
         Band energy: -24.998039;  BLOECHL correction: -0.044477
       DOS:  cpu time   50.5783: real time   50.5953
    --------------------------------------------
      LOOP:  cpu time  109.2343: real time  109.3126

 eigenvalue-minimisations  : 24000
 total energy-change (2. order) : 0.3385164E+04  (-0.1726152E+05)
 number of electron     324.0000000 magnetization      39.0000000
 augmentation part      324.0000000 magnetization      39.0000000

 Free energy of the ion-electron system (eV)
  ---------------------------------------------------
  alpha Z        PSCENC =      1754.07391684
  Ewald energy   TEWEN  =    -22792.54568904
  -Hartree energ DENC   =     -9000.05206978
  -exchange      EXHF   =         0.00000000
  -V(xc)+E(xc)   XCENC  =      1404.02305550
  PAW double counting   =     25642.25965449   -25778.45180652
  entropy T*S    EENTRO =         0.00000000
  eigenvalues    EBANDS =       -24.99803881
  atomic energy  EATOM  =     32180.85449221
  Solvation  Ediel_sol  =         0.00000000
  ---------------------------------------------------
  free energy    TOTEN  =      3385.16351489 eV

  energy without entropy =     3385.16351489  energy(sigma->0) =     3385.16351489


--------------------------------------------------------------------------------------------------------




--------------------------------------- Iteration      1(   2)  ---------------------------------------


     EDDAV:  cpu time   67.0139: real time   67.0345
 BZINTS: Fermi energy:  6.941602;324.000000 electrons
         Band energy:***********;  BLOECHL correction: -0.009925
       DOS:  cpu time    0.7351: real time    0.7351
    --------------------------------------------
      LOOP:  cpu time   67.7489: real time   67.7695

 eigenvalue-minimisations  : 27878
 total energy-change (2. order) :-0.3323260E+04  (-0.3112195E+04)
 number of electron     324.0000000 magnetization      39.0000000
 augmentation part      324.0000000 magnetization      39.0000000

 Free energy of the ion-electron system (eV)
  ---------------------------------------------------
  alpha Z        PSCENC =      1754.07391684
  Ewald energy   TEWEN  =    -22792.54568904
  -Hartree energ DENC   =     -9000.05206978
  -exchange      EXHF   =         0.00000000
  -V(xc)+E(xc)   XCENC  =      1404.02305550
  PAW double counting   =     25642.25965449   -25778.45180652
  entropy T*S    EENTRO =         0.00000000
  eigenvalues    EBANDS =     -3348.25776379
  atomic energy  EATOM  =     32180.85449221
  Solvation  Ediel_sol  =         0.00000000
  ---------------------------------------------------
  free energy    TOTEN  =        61.90378991 eV

  energy without entropy =       61.90378991  energy(sigma->0) =       61.90378991


--------------------------------------------------------------------------------------------------------




--------------------------------------- Iteration      1(   3)  ---------------------------------------


     EDDAV:  cpu time   78.8670: real time   78.9017
 BZINTS: Fermi energy:  5.453341;324.000000 electrons
         Band energy:***********;  BLOECHL correction:  0.000000
       DOS:  cpu time    0.4993: real time    0.4993
    --------------------------------------------
      LOOP:  cpu time   79.3663: real time   79.4010

 eigenvalue-minimisations  : 34856
 total energy-change (2. order) :-0.3748289E+03  (-0.3701858E+03)
 number of electron     324.0000000 magnetization      39.0000000
 augmentation part      324.0000000 magnetization      39.0000000

 Free energy of the ion-electron system (eV)
  ---------------------------------------------------
  alpha Z        PSCENC =      1754.07391684
  Ewald energy   TEWEN  =    -22792.54568904
  -Hartree energ DENC   =     -9000.05206978
  -exchange      EXHF   =         0.00000000
  -V(xc)+E(xc)   XCENC  =      1404.02305550
  PAW double counting   =     25642.25965449   -25778.45180652
  entropy T*S    EENTRO =         0.00000000
  eigenvalues    EBANDS =     -3723.08664066
  atomic energy  EATOM  =     32180.85449221
  Solvation  Ediel_sol  =         0.00000000
  ---------------------------------------------------
  free energy    TOTEN  =      -312.92508697 eV

  energy without entropy =     -312.92508697  energy(sigma->0) =     -312.92508697


--------------------------------------------------------------------------------------------------------




--------------------------------------- Iteration      1(   4)  ---------------------------------------


     EDDAV:  cpu time   82.1090: real time   82.1413
 BZINTS: Fermi energy:  5.402080;324.000000 electrons
         Band energy:***********;  BLOECHL correction:  0.000000
       DOS:  cpu time    0.4793: real time    0.4793
    --------------------------------------------
      LOOP:  cpu time   82.5882: real time   82.6206

 eigenvalue-minimisations  : 36640
 total energy-change (2. order) :-0.1936048E+02  (-0.1927066E+02)
 number of electron     324.0000000 magnetization      39.0000000
 augmentation part      324.0000000 magnetization      39.0000000

 Free energy of the ion-electron system (eV)
  ---------------------------------------------------
  alpha Z        PSCENC =      1754.07391684
  Ewald energy   TEWEN  =    -22792.54568904
  -Hartree energ DENC   =     -9000.05206978
  -exchange      EXHF   =         0.00000000
  -V(xc)+E(xc)   XCENC  =      1404.02305550
  PAW double counting   =     25642.25965449   -25778.45180652
  entropy T*S    EENTRO =         0.00000000
  eigenvalues    EBANDS =     -3742.44711630
  atomic energy  EATOM  =     32180.85449221
  Solvation  Ediel_sol  =         0.00000000
  ---------------------------------------------------
  free energy    TOTEN  =      -332.28556261 eV

  energy without entropy =     -332.28556261  energy(sigma->0) =     -332.28556261


--------------------------------------------------------------------------------------------------------




--------------------------------------- Iteration      1(   5)  ---------------------------------------


     EDDAV:  cpu time   91.2809: real time   91.3162
 BZINTS: Fermi energy:  5.396079;324.000000 electrons
         Band energy:***********;  BLOECHL correction:  0.000000
       DOS:  cpu time    0.4796: real time    0.4796
    CHARGE:  cpu time    2.4138: real time    2.4184
    MIXING:  cpu time    0.0024: real time    0.0050
    --------------------------------------------
      LOOP:  cpu time   94.1768: real time   94.2192

 eigenvalue-minimisations  : 41512
 total energy-change (2. order) :-0.1257126E+01  (-0.1255985E+01)
 number of electron     324.0000006 magnetization      18.9381929
 augmentation part       43.6208277 magnetization      18.1951778

 Broyden mixing:
  rms(total) = 0.61966E+01    rms(broyden)= 0.61883E+01
  rms(prec ) = 0.83287E+01
  weight for this iteration     100.00

 Free energy of the ion-electron system (eV)
  ---------------------------------------------------
  alpha Z        PSCENC =      1754.07391684
  Ewald energy   TEWEN  =    -22792.54568904
  -Hartree energ DENC   =     -9000.05206978
  -exchange      EXHF   =         0.00000000
  -V(xc)+E(xc)   XCENC  =      1404.02305550
  PAW double counting   =     25642.25965449   -25778.45180652
  entropy T*S    EENTRO =         0.00000000
  eigenvalues    EBANDS =     -3743.70424220
  atomic energy  EATOM  =     32180.85449221
  Solvation  Ediel_sol  =         0.00000000
  ---------------------------------------------------
  free energy    TOTEN  =      -333.54268851 eV

  energy without entropy =     -333.54268851  energy(sigma->0) =     -333.54268851


--------------------------------------------------------------------------------------------------------




--------------------------------------- Iteration      1(   6)  ---------------------------------------


    POTLOK:  cpu time    0.0833: real time    0.0837
    SETDIJ:  cpu time    0.1263: real time    0.1263
     EDDAV:  cpu time   75.1212: real time   75.1481
 BZINTS: Fermi energy:  3.601220;324.000000 electrons
         Band energy:***********;  BLOECHL correction:  0.000000
       DOS:  cpu time    0.4793: real time    0.4798
    CHARGE:  cpu time    2.4342: real time    2.4346
    MIXING:  cpu time    0.0040: real time    0.0048
    --------------------------------------------
      LOOP:  cpu time   78.2483: real time   78.2772

 eigenvalue-minimisations  : 32768
 total energy-change (2. order) : 0.5977885E+02  (-0.3612861E+02)
 number of electron     324.0000006 magnetization      12.3291328
 augmentation part       41.5925478 magnetization      10.6030007

 Broyden mixing:
  rms(total) = 0.34703E+01    rms(broyden)= 0.34679E+01
  rms(prec ) = 0.37784E+01
  weight for this iteration     100.00

 eigenvalues of (default mixing * dielectric matrix)
  average eigenvalue GAMMA=   0.7276
  0.7276

 Free energy of the ion-electron system (eV)
  ---------------------------------------------------
  alpha Z        PSCENC =      1754.07391684
  Ewald energy   TEWEN  =    -22792.54568904
  -Hartree energ DENC   =     -9086.13318492
  -exchange      EXHF   =         0.00000000
  -V(xc)+E(xc)   XCENC  =      1422.45638173
  PAW double counting   =     27496.66688758   -27639.41584971
  entropy T*S    EENTRO =         0.00000000
  eigenvalues    EBANDS =     -3609.72079620
  atomic energy  EATOM  =     32180.85449221
  Solvation  Ediel_sol  =         0.00000000
  ---------------------------------------------------
  free energy    TOTEN  =      -273.76384152 eV

  energy without entropy =     -273.76384152  energy(sigma->0) =     -273.76384152


--------------------------------------------------------------------------------------------------------




--------------------------------------- Iteration      1(   7)  ---------------------------------------


    POTLOK:  cpu time    0.0837: real time    0.0839
    SETDIJ:  cpu time    0.1258: real time    0.1258
     EDDAV:  cpu time   80.9882: real time   81.0176
 BZINTS: Fermi energy:  3.256714;324.000000 electrons
         Band energy:***********;  BLOECHL correction:  0.000000
       DOS:  cpu time    0.5163: real time    0.5170
    CHARGE:  cpu time    2.4428: real time    2.4432
    MIXING:  cpu time    0.0026: real time    0.0026
    --------------------------------------------
      LOOP:  cpu time   84.1595: real time   84.1901

 eigenvalue-minimisations  : 35944
 total energy-change (2. order) :-0.3731481E+01  (-0.3959075E+01)
 number of electron     324.0000006 magnetization       7.6432581
 augmentation part       40.5252406 magnetization       6.1509429

 Broyden mixing:
  rms(total) = 0.15347E+01    rms(broyden)= 0.15346E+01
  rms(prec ) = 0.16875E+01
  weight for this iteration     100.00

 eigenvalues of (default mixing * dielectric matrix)
  average eigenvalue GAMMA=   0.7537
  0.7537  0.7537

 Free energy of the ion-electron system (eV)
  ---------------------------------------------------
  alpha Z        PSCENC =      1754.07391684
  Ewald energy   TEWEN  =    -22792.54568904
  -Hartree energ DENC   =     -9055.85264250
  -exchange      EXHF   =         0.00000000
  -V(xc)+E(xc)   XCENC  =      1415.13710191
  PAW double counting   =     28609.98596926   -28769.57002172
  entropy T*S    EENTRO =         0.00000000
  eigenvalues    EBANDS =     -3619.57844988
  atomic energy  EATOM  =     32180.85449221
  Solvation  Ediel_sol  =         0.00000000
  ---------------------------------------------------
  free energy    TOTEN  =      -277.49532291 eV

  energy without entropy =     -277.49532291  energy(sigma->0) =     -277.49532291


--------------------------------------------------------------------------------------------------------




--------------------------------------- Iteration      1(   8)  ---------------------------------------


    POTLOK:  cpu time    0.0836: real time    0.0838
    SETDIJ:  cpu time    0.1233: real time    0.1233
     EDDAV:  cpu time   78.4243: real time   78.4452
 BZINTS: Fermi energy:  3.198765;324.000000 electrons
         Band energy:***********;  BLOECHL correction:  0.000000
       DOS:  cpu time    0.5064: real time    0.5064
    CHARGE:  cpu time    2.4356: real time    2.4360
    MIXING:  cpu time    0.0025: real time    0.0025
    --------------------------------------------
      LOOP:  cpu time   81.5757: real time   81.5972

 eigenvalue-minimisations  : 34688
 total energy-change (2. order) :-0.1002369E+01  (-0.5173351E+00)
 number of electron     324.0000006 magnetization       4.0000851
 augmentation part       40.2761120 magnetization       2.6499846

 Broyden mixing:
  rms(total) = 0.10013E+01    rms(broyden)= 0.10011E+01
  rms(prec ) = 0.10945E+01
  weight for this iteration     100.00

 eigenvalues of (default mixing * dielectric matrix)
  average eigenvalue GAMMA=   1.0036
  1.5878  0.8452  0.5779

 Free energy of the ion-electron system (eV)
  ---------------------------------------------------
  alpha Z        PSCENC =      1754.07391684
  Ewald energy   TEWEN  =    -22792.54568904
  -Hartree energ DENC   =     -9037.41028043
  -exchange      EXHF   =         0.00000000
  -V(xc)+E(xc)   XCENC  =      1413.47228768
  PAW double counting   =     29450.07594948   -29605.26556222
  entropy T*S    EENTRO =         0.00000000
  eigenvalues    EBANDS =     -3641.75280624
  atomic energy  EATOM  =     32180.85449221
  Solvation  Ediel_sol  =         0.00000000
  ---------------------------------------------------
  free energy    TOTEN  =      -278.49769171 eV

  energy without entropy =     -278.49769171  energy(sigma->0) =     -278.49769171


--------------------------------------------------------------------------------------------------------




--------------------------------------- Iteration      1(   9)  ---------------------------------------


    POTLOK:  cpu time    0.0830: real time    0.0834
    SETDIJ:  cpu time    0.1228: real time    0.1229
     EDDAV:  cpu time   81.5172: real time   81.5477
 BZINTS: Fermi energy:  3.251650;324.000000 electrons
         Band energy:***********;  BLOECHL correction:  0.000000
       DOS:  cpu time    0.4744: real time    0.4745
    CHARGE:  cpu time    2.4087: real time    2.4097
    MIXING:  cpu time    0.0055: real time    0.0060
    --------------------------------------------
      LOOP:  cpu time   84.6116: real time   84.6442

 eigenvalue-minimisations  : 36328
 total energy-change (2. order) :-0.2841181E+00  (-0.1416543E+00)
 number of electron     324.0000006 magnetization       3.1180240
 augmentation part       40.3252708 magnetization       1.8830473

 Broyden mixing:
  rms(total) = 0.48015E+00    rms(broyden)= 0.48011E+00
  rms(prec ) = 0.52409E+00
  weight for this iteration     100.00

 eigenvalues of (default mixing * dielectric matrix)
  average eigenvalue GAMMA=   1.1052
  2.1814  0.9200  0.6597  0.6597

 Free energy of the ion-electron system (eV)
  ---------------------------------------------------
  alpha Z        PSCENC =      1754.07391684
  Ewald energy   TEWEN  =    -22792.54568904
  -Hartree energ DENC   =     -9025.38579741
  -exchange      EXHF   =         0.00000000
  -V(xc)+E(xc)   XCENC  =      1413.10423292
  PAW double counting   =     30249.71163739   -30397.80331452
  entropy T*S    EENTRO =         0.00000000
  eigenvalues    EBANDS =     -3660.79128821
  atomic energy  EATOM  =     32180.85449221
  Solvation  Ediel_sol  =         0.00000000
  ---------------------------------------------------
  free energy    TOTEN  =      -278.78180980 eV

  energy without entropy =     -278.78180980  energy(sigma->0) =     -278.78180980


--------------------------------------------------------------------------------------------------------




--------------------------------------- Iteration      1(  10)  ---------------------------------------


    POTLOK:  cpu time    0.0831: real time    0.0833
    SETDIJ:  cpu time    0.1228: real time    0.1228
     EDDAV:  cpu time   76.8262: real time   76.8559
 BZINTS: Fermi energy:  3.344731;324.000000 electrons
         Band energy:***********;  BLOECHL correction:  0.000000
       DOS:  cpu time    0.5184: real time    0.5186
    CHARGE:  cpu time    2.4282: real time    2.4284
    MIXING:  cpu time    0.0030: real time    0.0030
    --------------------------------------------
      LOOP:  cpu time   79.9817: real time   80.0120

 eigenvalue-minimisations  : 33848
 total energy-change (2. order) :-0.4423222E-01  (-0.3682169E-01)
 number of electron     324.0000006 magnetization       3.5957365
 augmentation part       40.2472575 magnetization       2.3847364

 Broyden mixing:
  rms(total) = 0.16083E+00    rms(broyden)= 0.16080E+00
  rms(prec ) = 0.18234E+00
  weight for this iteration     100.00

 eigenvalues of (default mixing * dielectric matrix)
  average eigenvalue GAMMA=   1.0814
  2.3625  0.9998  0.6717  0.6864  0.6864

 Free energy of the ion-electron system (eV)
  ---------------------------------------------------
  alpha Z        PSCENC =      1754.07391684
  Ewald energy   TEWEN  =    -22792.54568904
  -Hartree energ DENC   =     -9038.44758043
  -exchange      EXHF   =         0.00000000
  -V(xc)+E(xc)   XCENC  =      1413.80334863
  PAW double counting   =     30649.53866753   -30794.29202906
  entropy T*S    EENTRO =         0.00000000
  eigenvalues    EBANDS =     -3651.81116870
  atomic energy  EATOM  =     32180.85449221
  Solvation  Ediel_sol  =         0.00000000
  ---------------------------------------------------
  free energy    TOTEN  =      -278.82604202 eV

  energy without entropy =     -278.82604202  energy(sigma->0) =     -278.82604202


--------------------------------------------------------------------------------------------------------




--------------------------------------- Iteration      1(  11)  ---------------------------------------


    POTLOK:  cpu time    0.0827: real time    0.0832
    SETDIJ:  cpu time    0.1227: real time    0.1230
     EDDAV:  cpu time   73.5299: real time   73.5581
 BZINTS: Fermi energy:  3.372737;324.000000 electrons
         Band energy:***********;  BLOECHL correction:  0.000000
       DOS:  cpu time    0.5175: real time    0.5176
    CHARGE:  cpu time    2.4093: real time    2.4095
    MIXING:  cpu time    0.0045: real time    0.0045
    --------------------------------------------
      LOOP:  cpu time   76.6667: real time   76.6958

 eigenvalue-minimisations  : 32232
 total energy-change (2. order) :-0.1456734E-01  (-0.9128390E-02)
 number of electron     324.0000006 magnetization       3.9058858
 augmentation part       40.1881983 magnetization       2.6853185

 Broyden mixing:
  rms(total) = 0.95852E-01    rms(broyden)= 0.95842E-01
  rms(prec ) = 0.10437E+00
  weight for this iteration     100.00

 eigenvalues of (default mixing * dielectric matrix)
  average eigenvalue GAMMA=   1.1210
  2.4535  1.4092  0.9191  0.6812  0.6812  0.5816

 Free energy of the ion-electron system (eV)
  ---------------------------------------------------
  alpha Z        PSCENC =      1754.07391684
  Ewald energy   TEWEN  =    -22792.54568904
  -Hartree energ DENC   =     -9049.38961072
  -exchange      EXHF   =         0.00000000
  -V(xc)+E(xc)   XCENC  =      1414.31883623
  PAW double counting   =     30714.29392546   -30857.39049583
  entropy T*S    EENTRO =         0.00000000
  eigenvalues    EBANDS =     -3643.05598452
  atomic energy  EATOM  =     32180.85449221
  Solvation  Ediel_sol  =         0.00000000
  ---------------------------------------------------
  free energy    TOTEN  =      -278.84060936 eV

  energy without entropy =     -278.84060936  energy(sigma->0) =     -278.84060936


--------------------------------------------------------------------------------------------------------




--------------------------------------- Iteration      1(  12)  ---------------------------------------


    POTLOK:  cpu time    0.0829: real time    0.0834
    SETDIJ:  cpu time    0.1220: real time    0.1220
     EDDAV:  cpu time   82.8198: real time   82.8514
 BZINTS: Fermi energy:  3.384739;324.000000 electrons
         Band energy:***********;  BLOECHL correction:  0.000000
       DOS:  cpu time    0.5170: real time    0.5170
    CHARGE:  cpu time    2.4477: real time    2.4479
    MIXING:  cpu time    0.0056: real time    0.0056
    --------------------------------------------
      LOOP:  cpu time   85.9950: real time   86.0273

 eigenvalue-minimisations  : 37216
 total energy-change (2. order) :-0.5279264E-02  (-0.1897983E-02)
 number of electron     324.0000006 magnetization       3.9606397
 augmentation part       40.1778331 magnetization       2.7308740

 Broyden mixing:
  rms(total) = 0.36182E-01    rms(broyden)= 0.36177E-01
  rms(prec ) = 0.41428E-01
  weight for this iteration     100.00

 eigenvalues of (default mixing * dielectric matrix)
  average eigenvalue GAMMA=   1.0906
  2.5350  1.4994  0.9685  0.6995  0.6995  0.6555  0.5765

 Free energy of the ion-electron system (eV)
  ---------------------------------------------------
  alpha Z        PSCENC =      1754.07391684
  Ewald energy   TEWEN  =    -22792.54568904
  -Hartree energ DENC   =     -9054.09466191
  -exchange      EXHF   =         0.00000000
  -V(xc)+E(xc)   XCENC  =      1414.54988978
  PAW double counting   =     30736.36144999   -30878.18333428
  entropy T*S    EENTRO =         0.00000000
  eigenvalues    EBANDS =     -3639.86195221
  atomic energy  EATOM  =     32180.85449221
  Solvation  Ediel_sol  =         0.00000000
  ---------------------------------------------------
  free energy    TOTEN  =      -278.84588862 eV

  energy without entropy =     -278.84588862  energy(sigma->0) =     -278.84588862


--------------------------------------------------------------------------------------------------------




--------------------------------------- Iteration      1(  13)  ---------------------------------------


    POTLOK:  cpu time    0.0832: real time    0.0834
    SETDIJ:  cpu time    0.1206: real time    0.1206
     EDDAV:  cpu time   72.4864: real time   72.5048
 BZINTS: Fermi energy:  3.390741;324.000000 electrons
         Band energy:***********;  BLOECHL correction:  0.000000
       DOS:  cpu time    0.5170: real time    0.5170
    CHARGE:  cpu time    2.4425: real time    2.4427
    MIXING:  cpu time    0.0042: real time    0.0042
    --------------------------------------------
      LOOP:  cpu time   75.6538: real time   75.6727

 eigenvalue-minimisations  : 31600
 total energy-change (2. order) :-0.1318050E-02  (-0.3000784E-03)
 number of electron     324.0000006 magnetization       4.0036240
 augmentation part       40.1787882 magnetization       2.7722032

 Broyden mixing:
  rms(total) = 0.22911E-01    rms(broyden)= 0.22907E-01
  rms(prec ) = 0.25209E-01
  weight for this iteration     100.00

 eigenvalues of (default mixing * dielectric matrix)
  average eigenvalue GAMMA=   1.1365
  2.6808  1.8026  1.1466  0.8898  0.6846  0.6846  0.6603  0.5431

 Free energy of the ion-electron system (eV)
  ---------------------------------------------------
  alpha Z        PSCENC =      1754.07391684
  Ewald energy   TEWEN  =    -22792.54568904
  -Hartree energ DENC   =     -9055.34665625
  -exchange      EXHF   =         0.00000000
  -V(xc)+E(xc)   XCENC  =      1414.60934358
  PAW double counting   =     30754.77214769   -30895.91248487
  entropy T*S    EENTRO =         0.00000000
  eigenvalues    EBANDS =     -3639.35227685
  atomic energy  EATOM  =     32180.85449221
  Solvation  Ediel_sol  =         0.00000000
  ---------------------------------------------------
  free energy    TOTEN  =      -278.84720667 eV

  energy without entropy =     -278.84720667  energy(sigma->0) =     -278.84720667


--------------------------------------------------------------------------------------------------------




[...]
   86.869573  -12.630926   11.520439    0.999801    0.000000    0.000000    0.000000
   86.878415  -11.917790    3.962869    0.999625    0.000000    0.000000    0.000000
   86.887256  -12.625430   11.516133    0.999794    0.000000    0.000000    0.000000
   86.896098  -12.622520   11.514050    0.999806    0.000000    0.000000    0.000000
   86.904940  -12.619747   11.511911    0.999805    0.000000    0.000000    0.000000
   86.913781  -12.616975   11.509773    0.999805    0.000000    0.000000    0.000000
   86.922623  -17.109936   11.507459    0.999803    0.000000    0.000000    0.000000
   86.931465  -12.611529   11.505445    0.999801    0.000000    0.000000    0.000000
   86.940306  -12.608661   11.503362    0.999806    0.000000    0.000000    0.000000
   86.949148  -12.605986   11.501172    0.999803    0.000000    0.000000    0.000000
   86.957990  -12.603223   11.499036    0.999802    0.000000    0.000000    0.000000
   86.966832  -12.600465   11.496897    0.999801    0.000000    0.000000    0.000000
   86.975673  -12.597580   11.494816    0.999807    0.000000    0.000000    0.000000
   86.984515   24.756675    1.790291    0.999631    0.000000    0.000000    0.000000
   86.993357  -12.592116   11.490516    0.999801    0.000000    0.000000    0.000000
   87.002198  -19.299413   -7.387155    0.999600    0.000000    0.000000    0.000000
   87.011040  -12.586639   11.486253    0.999805    0.000000    0.000000    0.000000
   87.019882   -2.206393    4.126044    0.999619    0.000000    0.000000    0.000000
   87.028723  -12.581161   11.481969    0.999781    0.000000    0.000000    0.000000
   87.037565  -12.578270   11.479898    0.999807    0.000000    0.000000    0.000000
   87.046407  -12.575511   11.477768    0.999806    0.000000    0.000000    0.000000
   87.055248  -12.572753   11.475640    0.999806    0.000000    0.000000    0.000000
   87.064090  -16.970505   11.473354    0.999804    0.000000    0.000000    0.000000
   87.072932  -12.567337   11.471334    0.999796    0.000000    0.000000    0.000000
   87.081773  -12.564482   11.469261    0.999807    0.000000    0.000000    0.000000
   87.090615  -12.561827   11.467082    0.999801    0.000000    0.000000    0.000000
   87.099457  -12.559078   11.464955    0.999801    0.000000    0.000000    0.000000
   87.108299  -12.556333   11.462827    0.999801    0.000000    0.000000    0.000000
   87.117140  -12.553465   11.460754    0.999807    0.000000    0.000000    0.000000
   87.125982   28.229872    2.076128    0.999634    0.000000    0.000000    0.000000
   87.134824  -12.548011   11.456485    0.999805    0.000000    0.000000    0.000000
   87.143665    6.442712   -6.868843    0.999597    0.000000    0.000000    0.000000
   87.152507  -12.542568   11.452240    0.999804    0.000000    0.000000    0.000000
   87.161349    5.931189    4.280808    0.999626    0.000000    0.000000    0.000000
   87.170190  -12.537125   11.447972    0.999781    0.000000    0.000000    0.000000
   87.179032  -12.534228   11.445909    0.999807    0.000000    0.000000    0.000000
   87.187874  -12.531485   11.443790    0.999807    0.000000    0.000000    0.000000
   87.196715  -12.528742   11.441673    0.999807    0.000000    0.000000    0.000000
   87.205557  -16.834301   11.439393    0.999805    0.000000    0.000000    0.000000
   87.214399  -12.523388   11.437389    0.999798    0.000000    0.000000    0.000000
   87.223240  -12.520518   11.435324    0.999807    0.000000    0.000000    0.000000
   87.232082  -12.517909   11.433157    0.999800    0.000000    0.000000    0.000000
   87.240924  -12.515173   11.431040    0.999800    0.000000    0.000000    0.000000
   87.249766  -12.512440   11.428921    0.999800    0.000000    0.000000    0.000000
   87.258607  -12.509564   11.426854    0.999807    0.000000    0.000000    0.000000
   87.267449   -2.356044    2.341451    0.999648    0.000000    0.000000    0.000000
   87.276291  -12.504116   11.422613    0.999804    0.000000    0.000000    0.000000
   87.285132   -8.084575   -6.382838    0.999611    0.000000    0.000000    0.000000
   87.293974  -12.498711   11.418391    0.999802    0.000000    0.000000    0.000000
   87.302816  -16.481470    4.427673    0.999632    0.000000    0.000000    0.000000
   87.311657  -12.493312   11.414139    0.999786    0.000000    0.000000    0.000000
   87.320499  -12.490405   11.412086    0.999807    0.000000    0.000000    0.000000
   87.329341  -12.487676   11.409977    0.999806    0.000000    0.000000    0.000000
   87.338182  -12.484948   11.407871    0.999806    0.000000    0.000000    0.000000
   87.347024  -16.701181   11.405609    0.999801    0.000000    0.000000    0.000000
   87.355866  -12.479635   11.403608    0.999795    0.000000    0.000000    0.000000
   87.364707  -12.476766   11.401552    0.999806    0.000000    0.000000    0.000000
   87.373549  -12.474180   11.399396    0.999801    0.000000    0.000000    0.000000
   87.382391  -12.471457   11.397289    0.999804    0.000000    0.000000    0.000000
   87.391233  -12.468736   11.395179    0.999808    0.000000    0.000000    0.000000
   87.400074  -12.465868   11.393123    0.999807    0.000000    0.000000    0.000000
   87.408916  -17.229532    2.588450    0.999632    0.000000    0.000000    0.000000
   87.417758  -12.460460   11.388911    0.999807    0.000000    0.000000    0.000000
   87.426599    1.938617   -5.925943    0.999625    0.000000    0.000000    0.000000
   87.435441  -12.455067   11.384702    0.999805    0.000000    0.000000    0.000000
   87.444283   -1.522599    4.567121    0.999639    0.000000    0.000000    0.000000
   87.453124  -12.449676   11.380469    0.999794    0.000000    0.000000    0.000000
   87.461966  -12.446797   11.378426    0.999807    0.000000    0.000000    0.000000
   87.470808  -12.444080   11.376328    0.999806    0.000000    0.000000    0.000000
   87.479649  -12.441364   11.374232    0.999806    0.000000    0.000000    0.000000
   87.488491  -16.571030   11.371984    0.999798    0.000000    0.000000    0.000000
   87.497333  -12.436083   11.369990    0.999802    0.000000    0.000000    0.000000
   87.506174  -12.433220   11.367943    0.999807    0.000000    0.000000    0.000000
   87.515016  -12.430661   11.365798    0.999808    0.000000    0.000000    0.000000
   87.523858  -12.427952   11.363701    0.999812    0.000000    0.000000    0.000000
   87.532699  -12.425246   11.361602    0.999815    0.000000    0.000000    0.000000
   87.541541  -12.422375   11.359552    0.999807    0.000000    0.000000    0.000000
   87.550383  -28.561293    2.818994    0.999628    0.000000    0.000000    0.000000
   87.559225  -12.416998   11.355362    0.999810    0.000000    0.000000    0.000000
   87.568066   22.059427   -5.495409    0.999629    0.000000    0.000000    0.000000
   87.576908  -12.411634   11.351184    0.999809    0.000000    0.000000    0.000000
   87.585750   25.839907    4.699609    0.999638    0.000000    0.000000    0.000000
   87.594591  -12.406253   11.346963    0.999793    0.000000    0.000000    0.000000
   87.603433  -12.403413   11.344929    0.999807    0.000000    0.000000    0.000000
   87.612275  -12.400707   11.342841    0.999807    0.000000    0.000000    0.000000
   87.621116  -12.398002   11.340755    0.999807    0.000000    0.000000    0.000000
   87.629958  -16.443719   11.338514    0.999796    0.000000    0.000000    0.000000
   87.638800  -12.392723   11.336535    0.999797    0.000000    0.000000    0.000000
   87.647641  -12.389891   11.334497    0.999807    0.000000    0.000000    0.000000
   87.656483  -12.387337   11.332362    0.999803    0.000000    0.000000    0.000000
   87.665325  -12.384647   11.330275    0.999807    0.000000    0.000000    0.000000
   87.674166  -12.381957   11.328183    0.999810    0.000000    0.000000    0.000000
   87.683008  -12.379095   11.326143    0.999807    0.000000    0.000000    0.000000
   87.691850  -21.666712    3.034689    0.999643    0.000000    0.000000    0.000000
   87.700692  -12.373743   11.321982    0.999812    0.000000    0.000000    0.000000
   87.709533    4.997507   -5.088850    0.999636    0.000000    0.000000    0.000000
   87.718375  -12.368412   11.317825    0.999808    0.000000    0.000000    0.000000
   87.727217   28.879299    4.825556    0.999640    0.000000    0.000000    0.000000
   87.736058  -12.363057   11.313617    0.999798    0.000000    0.000000    0.000000
   87.744900  -12.360235   11.311593    0.999807    0.000000    0.000000    0.000000
   87.753742  -12.357540   11.309515    0.999807    0.000000    0.000000    0.000000
   87.762583  -12.354845   11.307440    0.999807    0.000000    0.000000    0.000000
   87.771425  -16.319131   11.305212    0.999797    0.000000    0.000000    0.000000
   87.780267  -12.349590   11.303240    0.999799    0.000000    0.000000    0.000000
   87.789108  -12.346769   11.301211    0.999807    0.000000    0.000000    0.000000
   87.797950  -12.344234   11.299088    0.999802    0.000000    0.000000    0.000000
   87.806792  -12.341556   11.297009    0.999804    0.000000    0.000000    0.000000
   87.815633  -12.338878   11.294930    0.999804    0.000000    0.000000    0.000000
   87.824475  -12.336025   11.292899    0.999808    0.000000    0.000000    0.000000
   87.833317  -15.326761    3.236924    0.999627    0.000000    0.000000    0.000000
   87.842159  -12.330693   11.288762    0.999813    0.000000    0.000000    0.000000
   87.851000   -4.811708   -4.704187    0.999611    0.000000    0.000000    0.000000
   87.859842  -12.325398   11.284628    0.999810    0.000000    0.000000    0.000000
   87.868684   21.898729    4.945363    0.999624    0.000000    0.000000    0.000000
   87.877525  -12.320075   11.280432    0.999807    0.000000    0.000000    0.000000
   87.886367  -12.317260   11.278418    0.999808    0.000000    0.000000    0.000000
   87.895209  -12.314579   11.276350    0.999807    0.000000    0.000000    0.000000
   87.904050  -12.311898   11.274285    0.999807    0.000000    0.000000    0.000000
   87.912892  -16.197155   11.272078    0.999801    0.000000    0.000000    0.000000
   87.921734  -12.306661   11.270107    0.999801    0.000000    0.000000    0.000000
   87.930575  -12.303861   11.268085    0.999808    0.000000    0.000000    0.000000
   87.939417  -12.301311   11.265972    0.999802    0.000000    0.000000    0.000000
   87.948259  -12.298642   11.263905    0.999802    0.000000    0.000000    0.000000
   87.957100  -12.295976   11.261833    0.999801    0.000000    0.000000    0.000000
   87.965942  -12.293161   11.259811    0.999808    0.000000    0.000000    0.000000
   87.974784   23.547738    3.426909    0.999618    0.000000    0.000000    0.000000
   87.983626  -12.287872   11.255702    0.999813    0.000000    0.000000    0.000000
   87.992467  -17.710366   -4.339594    0.999601    0.000000    0.000000    0.000000
   88.001309  -12.282593   11.251583    0.999811    0.000000    0.000000    0.000000
   88.010151    5.669248    5.059389    0.999622    0.000000    0.000000    0.000000
   88.018992  -12.277310   11.247407    0.999812    0.000000    0.000000    0.000000
   88.027834  -12.274492   11.245401    0.999808    0.000000    0.000000    0.000000
   88.036676  -12.271825   11.243344    0.999808    0.000000    0.000000    0.000000
   88.045517  -12.269157   11.241290    0.999808    0.000000    0.000000    0.000000
   88.054359  -16.077704   11.239074    0.999803    0.000000    0.000000    0.000000
   88.063201  -12.263934   11.237131    0.999804    0.000000    0.000000    0.000000
   88.072042  -12.261157   11.235120    0.999808    0.000000    0.000000    0.000000
   88.080884  -12.258605   11.233018    0.999804    0.000000    0.000000    0.000000
   88.089726  -12.255952   11.230957    0.999804    0.000000    0.000000    0.000000
   88.098567  -12.253305   11.228896    0.999803    0.000000    0.000000    0.000000
   88.107409  -12.250501   11.226882    0.999809    0.000000    0.000000    0.000000
   88.116251   29.956011    3.605701    0.999620    0.000000    0.000000    0.000000
   88.125093  -12.245246   11.222801    0.999815    0.000000    0.000000    0.000000
   88.133934  -16.075864   -3.993463    0.999615    0.000000    0.000000    0.000000
   88.142776  -12.239993   11.218701    0.999815    0.000000    0.000000    0.000000
   88.151618   -0.580205    5.167977    0.999631    0.000000    0.000000    0.000000
   88.160459  -12.234747   11.214539    0.999809    0.000000    0.000000    0.000000
   88.169301  -12.231929   11.212544    0.999809    0.000000    0.000000    0.000000
   88.178143  -12.229275   11.210496    0.999808    0.000000    0.000000    0.000000
   88.186984  -12.226621   11.208452    0.999808    0.000000    0.000000    0.000000
   88.195826  -15.960669   11.206253    0.999806    0.000000    0.000000    0.000000
   88.204668  -12.221434   11.204314    0.999808    0.000000    0.000000    0.000000
   88.213509  -12.218661   11.202310    0.999809    0.000000    0.000000    0.000000
   88.222351  -12.216123   11.200219    0.999807    0.000000    0.000000    0.000000
   88.231193  -12.213477   11.198170    0.999806    0.000000    0.000000    0.000000
   88.240034  -12.210838   11.196119    0.999804    0.000000    0.000000    0.000000
   88.248876  -12.208057   11.194113    0.999809    0.000000    0.000000    0.000000
   88.257718   47.870878    3.774235    0.999619    0.000000    0.000000    0.000000
   88.266559  -12.202816   11.190056    0.999815    0.000000    0.000000    0.000000
   88.275401  -14.061281   -3.664364    0.999591    0.000000    0.000000    0.000000
   88.284243  -12.197599   11.185979    0.999816    0.000000    0.000000    0.000000
   88.293085   -2.606153    5.271445    0.999609    0.000000    0.000000    0.000000
   88.301926  -12.192382   11.181831    0.999792    0.000000    0.000000    0.000000
   88.310768  -12.189565   11.179843    0.999809    0.000000    0.000000    0.000000
   88.319610  -12.186925   11.177806    0.999809    0.000000    0.000000    0.000000
   88.328451  -12.184284   11.175773    0.999809    0.000000    0.000000    0.000000
   88.337293  -15.845960   11.173603    0.999807    0.000000    0.000000    0.000000
   88.346135  -12.179138   11.171656    0.999802    0.000000    0.000000    0.000000
   88.354976  -12.176366   11.169663    0.999809    0.000000    0.000000    0.000000
   88.363818  -12.173854   11.167581    0.999805    0.000000    0.000000    0.000000
   88.372660  -12.171220   11.165542    0.999805    0.000000    0.000000    0.000000
   88.381501  -12.168591   11.163500    0.999805    0.000000    0.000000    0.000000
   88.390343  -12.165821   11.161507    0.999810    0.000000    0.000000    0.000000
   88.399185   38.678558    3.933341    0.999630    0.000000    0.000000    0.000000
 
 The outermost node in the dielectric function lies at epsilon=  20.2


--------------------------------------------------------------------------------------------------------


    OPTICS:  cpu time  229.8553: real time  230.5727
    4ORBIT:  cpu time    0.0000: real time    0.0000
 


 total charge     
 
# of ion       s       p       d       tot
------------------------------------------
    1        2.007   5.641   0.317   7.965
    2        2.007   5.641   0.317   7.964
    3        2.007   5.641   0.319   7.966
    4        2.007   5.641   0.319   7.967
    5        1.960   5.592   0.040   7.593
    6        1.960   5.592   0.041   7.593
    7        1.960   5.592   0.041   7.593
    8        1.960   5.592   0.040   7.593
    9        0.193   6.133   7.829  14.155
   10        0.194   6.152   7.847  14.194
   11        2.214   6.131   1.964  10.309
   12        2.220   6.131   2.056  10.407
   13        2.198   6.129   1.874  10.201
   14        2.198   6.126   1.875  10.199
   15        2.205   6.122   1.849  10.176
   16        2.202   6.130   1.872  10.204
   17        1.571   3.534   0.000   5.104
   18        1.561   3.446   0.000   5.007
   19        1.566   3.459   0.000   5.025
   20        1.568   3.425   0.000   4.993
   21        1.570   3.465   0.000   5.035
   22        1.563   3.456   0.000   5.019
   23        1.570   3.465   0.000   5.035
   24        1.565   3.472   0.000   5.038
   25        1.565   3.471   0.000   5.037
   26        1.564   3.478   0.000   5.042
   27        1.564   3.476   0.000   5.040
   28        1.580   3.455   0.000   5.035
   29        1.580   3.456   0.000   5.036
   30        1.565   3.476   0.000   5.041
   31        1.565   3.479   0.000   5.044
   32        1.570   3.445   0.000   5.015
   33        1.570   3.446   0.000   5.016
   34        1.565   3.464   0.000   5.029
   35        1.565   3.464   0.000   5.028
   36        1.563   3.481   0.000   5.043
   37        1.563   3.480   0.000   5.043
   38        1.561   3.452   0.000   5.013
   39        1.561   3.452   0.000   5.013
--------------------------------------------------
tot         65.524 173.683  28.599 267.807
 


 magnetization (x)
 
# of ion       s       p       d       tot
------------------------------------------
    1       -0.000  -0.000  -0.001  -0.001
    2       -0.000  -0.000  -0.001  -0.001
    3       -0.000  -0.000  -0.001  -0.001
    4       -0.000  -0.000  -0.001  -0.001
    5       -0.000  -0.000  -0.000  -0.000
    6       -0.000  -0.000  -0.000  -0.000
    7       -0.000  -0.000  -0.000  -0.000
    8       -0.000  -0.000  -0.000  -0.000
    9        0.014   0.004   1.749   1.767
   10        0.007   0.005   1.746   1.758
   11        0.000  -0.000  -0.000  -0.000
   12        0.001   0.001   0.009   0.011
   13        0.003   0.005   0.016   0.024
   14        0.001   0.003   0.007   0.011
   15       -0.000  -0.000  -0.001  -0.001
   16        0.003   0.004   0.016   0.023
   17        0.000   0.001   0.000   0.001
   18        0.004   0.040   0.000   0.044
   19       -0.000  -0.001   0.000  -0.001
   20        0.004   0.029   0.000   0.033
   21       -0.000   0.000   0.000   0.000
   22        0.003   0.030   0.000   0.034
   23        0.004   0.031   0.000   0.036
   24       -0.000  -0.000   0.000  -0.000
   25       -0.000  -0.000   0.000  -0.000
   26       -0.000   0.000   0.000  -0.000
   27       -0.000  -0.000   0.000  -0.000
   28        0.002   0.012   0.000   0.014
   29        0.002   0.012   0.000   0.014
   30       -0.000  -0.000   0.000  -0.000
   31       -0.000  -0.000   0.000  -0.000
   32        0.004   0.030   0.000   0.034
   33        0.004   0.030   0.000   0.034
   34        0.004   0.029   0.000   0.033
   35        0.004   0.029   0.000   0.033
   36       -0.000  -0.000   0.000  -0.000
   37       -0.000  -0.000   0.000  -0.000
   38        0.003   0.025   0.000   0.029
   39        0.003   0.025   0.000   0.029
--------------------------------------------------
tot          0.070   0.345   3.538   3.952
 
 BZINTS: Fermi energy:  3.396742;324.000000 electrons
         Band energy:***********;  BLOECHL correction:  0.000000

 total amount of memory used by VASP MPI-rank0   223258. kBytes
=======================================================================

   base      :      30000. kBytes
   nonlr-proj:       5256. kBytes
   fftplans  :       8683. kBytes
   grid      :       7088. kBytes
   one-center:         93. kBytes
   wavefun   :     172138. kBytes
 
  
  
 General timing and accounting informations for this job:
 ========================================================
  
                  Total CPU time used (sec):     2181.250
                            User time (sec):     2175.735
                          System time (sec):        5.515
                         Elapsed time (sec):     2183.111
  
                   Maximum memory used (kb):      685068.
                   Average memory used (kb):           0.
  
                          Minor page faults:        27782
                          Major page faults:           35
                 Voluntary context switches:         8527
