       N       E                     dE             d eps       ncg     rms          rms(c)
DAV:   1     0.338537966289E+04    0.33854E+04   -0.17255E+05  7104   0.149E+03
DAV:   2     0.597824097943E+02   -0.33256E+04   -0.31191E+04  8286   0.498E+02
DAV:   3    -0.312862084162E+03   -0.37264E+03   -0.36803E+03 10328   0.160E+02
DAV:   4    -0.332324786924E+03   -0.19463E+02   -0.19369E+02 10952   0.350E+01
DAV:   5    -0.333538461452E+03   -0.12137E+01   -0.12126E+01 12296   0.817E+00    0.620E+01
DAV:   6    -0.273730154805E+03    0.59808E+02   -0.36087E+02  9712   0.539E+01    0.347E+01
DAV:   7    -0.277489812588E+03   -0.37597E+01   -0.39704E+01 10664   0.225E+01    0.154E+01
DAV:   8    -0.278492168912E+03   -0.10024E+01   -0.52403E+00 10216   0.685E+00    0.100E+01
DAV:   9    -0.278781683809E+03   -0.28951E+00   -0.14313E+00 10856   0.583E+00    0.479E+00
DAV:  10    -0.278823830018E+03   -0.42146E-01   -0.36271E-01  9880   0.219E+00    0.153E+00
DAV:  11    -0.278839620784E+03   -0.15791E-01   -0.89324E-02  9600   0.110E+00    0.917E-01
DAV:  12    -0.278844550692E+03   -0.49299E-02   -0.17696E-02 11000   0.494E-01    0.350E-01
DAV:  13    -0.278845797498E+03   -0.12468E-02   -0.29351E-03  9392   0.164E-01    0.214E-01
DAV:  14    -0.278846199805E+03   -0.40231E-03   -0.76528E-04  9552   0.917E-02    0.955E-02
DAV:  15    -0.278846344833E+03   -0.14503E-03   -0.27981E-04  9248   0.550E-02    0.368E-02
DAV:  16    -0.278846380513E+03   -0.35680E-04   -0.72202E-05  9512   0.322E-02    0.221E-02
DAV:  17    -0.278846391277E+03   -0.10765E-04   -0.23744E-05  9128   0.251E-02    0.134E-02
DAV:  18    -0.278846394735E+03   -0.34579E-05   -0.86692E-06  7848   0.115E-02    0.565E-03
DAV:  19    -0.278846395802E+03   -0.10670E-05   -0.30114E-06  6720   0.488E-03    0.243E-03
DAV:  20    -0.278846395867E+03   -0.64319E-07   -0.46247E-07  5400   0.307E-03
   1 F= -.27884640E+03 E0= -.27884754E+03  d E =-.278846E+03  mag=     4.0223
