 vasp.5.4.4.18Apr17-6-g9f103f2a35 (build Nov 08 2017 09:05:29) complex          
  
 executed on          Intel_17.33 date 2019.01.29  21:00:47
 running on   16 total cores
 distrk:  each k-point on   16 cores,    1 groups
 distr:  one band on NCORES_PER_BAND=  16 cores,    1 groups


--------------------------------------------------------------------------------------------------------


 INCAR:
 POTCAR:    PAW_PBE Ba_sv 06Sep2000               
 POTCAR:    PAW_PBE K_sv 06Sep2000                
 POTCAR:    PAW_PBE Ni_pv 06Sep2000               
 POTCAR:    PAW_PBE Nb_sv 25May2007               
 POTCAR:    PAW_PBE O 08Apr2002                   

 ----------------------------------------------------------------------------- 
|                                                                             |
|           W    W    AA    RRRRR   N    N  II  N    N   GGGG   !!!           |
|           W    W   A  A   R    R  NN   N  II  NN   N  G    G  !!!           |
|           W    W  A    A  R    R  N N  N  II  N N  N  G       !!!           |
|           W WW W  AAAAAA  RRRRR   N  N N  II  N  N N  G  GGG   !            |
|           WW  WW  A    A  R   R   N   NN  II  N   NN  G    G                |
|           W    W  A    A  R    R  N    N  II  N    N   GGGG   !!!           |
|                                                                             |
|      For optimal performance we recommend to set                            |
|        NCORE= 4 - approx SQRT( number of cores)                             |
|      NCORE specifies how many cores store one orbital (NPAR=cpu/NCORE).     |
|      This setting can  greatly improve the performance of VASP for DFT.     |
|      The default,   NCORE=1            might be grossly inefficient         |
|      on modern multi-core architectures or massively parallel machines.     |
|      Do your own testing !!!!                                               |
|      Unfortunately you need to use the default for GW and RPA calculations. |
|      (for HF NCORE is supported but not extensively tested yet)             |
|                                                                             |
 ----------------------------------------------------------------------------- 

 POTCAR:    PAW_PBE Ba_sv 06Sep2000               
   VRHFIN =Ba: 5s5p6s                                                           
   LEXCH  = PE                                                                  
   EATOM  =   700.8560 eV,   51.5115 Ry                                         
                                                                                
   TITEL  = PAW_PBE Ba_sv 06Sep2000                                             
   LULTRA =        F    use ultrasoft PP ?                                      
   IUNSCR =        1    unscreen: 0-lin 1-nonlin 2-no                           
   RPACOR =    2.400    partial core radius                                     
   POMASS =  137.327; ZVAL   =   10.000    mass and valenz                      
   RCORE  =    2.800    outmost cutoff radius                                   
   RWIGS  =    3.740; RWIGS  =    1.979    wigner-seitz radius (au A)           
   ENMAX  =  187.181; ENMIN  =  140.386 eV                                      
   RCLOC  =    2.516    cutoff for local pot                                    
   LCOR   =        T    correct aug charges                                     
   LPAW   =        T    paw PP                                                  
   EAUG   =  351.165                                                            
   DEXC   =    0.000                                                            
   RMAX   =    2.865    core radius for proj-oper                               
   RAUG   =    1.300    factor for augmentation sphere                          
   RDEP   =    2.976    radius for radial grids                                 
   RDEPT  =    2.289    core radius for aug-charge                              
                                                                                
   Atomic configuration                                                         
   13 entries                                                                   
     n  l   j            E        occ.                                          
     1  0  0.50    -37249.5946   2.0000                                         
     2  0  0.50     -5887.1925   2.0000                                         
     2  1  1.50     -5278.3977   6.0000                                         
     3  0  0.50     -1242.7293   2.0000                                         
     3  1  1.50     -1047.6609   6.0000                                         
     3  2  2.50      -764.6158  10.0000                                         
     4  0  0.50      -243.8228   2.0000                                         
     4  1  1.50      -180.9218   6.0000                                         
     4  2  2.50       -89.6477  10.0000                                         
     5  0  0.50       -33.6549   2.0000                                         
     6  0  0.50        -3.2247   1.9900                                         
     5  1  1.50       -18.7193   6.0000                                         
     5  2  2.50        -2.0115   0.0100                                         
   Description                                                                  
     l       E           TYP  RCUT    TYP  RCUT                                 
     0    -33.6549039     23  2.800                                             
     0     -3.2246942     23  2.800                                             
     1    -18.7193050     23  2.700                                             
     1     27.2116520     23  2.700                                             
     2     -2.0115002     23  2.700                                             
     2      0.3057420     23  2.700                                             
  local pseudopotential read in
  partial core-charges read in
  partial kinetic energy density read in
  atomic valenz-charges read in
  non local Contribution for L=           0  read in
    real space projection operators read in
  non local Contribution for L=           0  read in
    real space projection operators read in
  non local Contribution for L=           1  read in
    real space projection operators read in
  non local Contribution for L=           1  read in
    real space projection operators read in
  non local Contribution for L=           2  read in
    real space projection operators read in
  non local Contribution for L=           2  read in
    real space projection operators read in
    PAW grid and wavefunctions read in
 
   number of l-projection  operators is LMAX  =           6
   number of lm-projection operators is LMMAX =          18
 
 POTCAR:    PAW_PBE K_sv 06Sep2000                
   VRHFIN =K:  3s3p4s                                                           
   LEXCH  = PE                                                                  
   EATOM  =   775.0067 eV,   56.9614 Ry                                         
                                                                                
   TITEL  = PAW_PBE K_sv 06Sep2000                                              
   LULTRA =        F    use ultrasoft PP ?                                      
   IUNSCR =        1    unscreen: 0-lin 1-nonlin 2-no                           
   RPACOR =    2.200    partial core radius                                     
   POMASS =   39.098; ZVAL   =    9.000    mass and valenz                      
   RCORE  =    2.300    outmost cutoff radius                                   
   RWIGS  =    3.000; RWIGS  =    1.588    wigner-seitz radius (au A)           
   ENMAX  =  259.264; ENMIN  =  194.448 eV                                      
   RCLOC  =    2.005    cutoff for local pot                                    
   LCOR   =        T    correct aug charges                                     
   LPAW   =        T    paw PP                                                  
   EAUG   =  427.853                                                            
   DEXC   =    0.000                                                            
   RMAX   =    2.358    core radius for proj-oper                               
   RAUG   =    1.300    factor for augmentation sphere                          
   RDEP   =    2.372    radius for radial grids                                 
   RDEPT  =    2.002    core radius for aug-charge                              
                                                                                
   Atomic configuration                                                         
    7 entries                                                                   
     n  l   j            E        occ.                                          
     1  0  0.50     -3522.0595   2.0000                                         
     2  0  0.50      -353.3851   2.0000                                         
     2  1  1.50      -280.0935   6.0000                                         
     3  0  0.50       -35.3419   2.0000                                         
     4  0  0.50        -2.3190   1.0000                                         
     3  1  1.50       -18.8125   6.0000                                         
     3  2  1.50        -1.3606   0.0000                                         
   Description                                                                  
     l       E           TYP  RCUT    TYP  RCUT                                 
     0    -35.3418873     23  2.300                                             
     0     -2.3190215     23  2.300                                             
     1    -18.8124623     23  2.300                                             
     1    -20.4087390     23  2.300                                             
     2     -1.3605826     23  2.300                                             
  local pseudopotential read in
  partial core-charges read in
  partial kinetic energy density read in
  atomic valenz-charges read in
  non local Contribution for L=           0  read in
    real space projection operators read in
  non local Contribution for L=           0  read in
    real space projection operators read in
  non local Contribution for L=           1  read in
    real space projection operators read in
  non local Contribution for L=           1  read in
    real space projection operators read in
  non local Contribution for L=           2  read in
    real space projection operators read in
    PAW grid and wavefunctions read in
 
   number of l-projection  operators is LMAX  =           5
   number of lm-projection operators is LMMAX =          13
 
 POTCAR:    PAW_PBE Ni_pv 06Sep2000               
   VRHFIN =Ni:                                                                  
   LEXCH  = PE                                                                  
   EATOM  =  3501.1230 eV,  257.3253 Ry                                         
                                                                                
   TITEL  = PAW_PBE Ni_pv 06Sep2000                                             
   LULTRA =        F    use ultrasoft PP ?                                      
   IUNSCR =        1    unscreen: 0-lin 1-nonlin 2-no                           
   RPACOR =    1.500    partial core radius                                     
   POMASS =   58.690; ZVAL   =   16.000    mass and valenz                      
   RCORE  =    2.000    outmost cutoff radius                                   
   RWIGS  =    2.000; RWIGS  =    1.058    wigner-seitz radius (au A)           
   ENMAX  =  367.986; ENMIN  =  275.989 eV                                      
   RCLOC  =    1.301    cutoff for local pot                                    
   LCOR   =        T    correct aug charges                                     
   LPAW   =        T    paw PP                                                  
   EAUG   =  703.443                                                            
   DEXC   =    0.000                                                            
   RMAX   =    2.041    core radius for proj-oper                               
   RAUG   =    1.300    factor for augmentation sphere                          
   RDEP   =    2.103    radius for radial grids                                 
   RDEPT  =    1.618    core radius for aug-charge                              
                                                                                
   Atomic configuration                                                         
    8 entries                                                                   
     n  l   j            E        occ.                                          
     1  0  0.50     -8206.4253   2.0000                                         
     2  0  0.50      -976.1748   2.0000                                         
     2  1  1.50      -839.0571   6.0000                                         
     3  0  0.50      -105.9991   2.0000                                         
     3  1  1.50       -66.4603   6.0000                                         
     3  2  2.50        -4.6458   9.0000                                         
     4  0  0.50        -4.4926   1.0000                                         
     4  3  2.50        -1.3606   0.0000                                         
   Description                                                                  
     l       E           TYP  RCUT    TYP  RCUT                                 
     1    -66.4602962     23  1.700                                             
     1     -1.3605826     23  1.700                                             
     2     -4.6457867     23  2.000                                             
     2     -6.0063693     23  2.000                                             
     0     -4.4925576     23  1.900                                             
     0     16.3626226     23  1.900                                             
  local pseudopotential read in
  partial core-charges read in
  partial kinetic energy density read in
  atomic valenz-charges read in
  non local Contribution for L=           1  read in
    real space projection operators read in
  non local Contribution for L=           1  read in
    real space projection operators read in
  non local Contribution for L=           2  read in
    real space projection operators read in
  non local Contribution for L=           2  read in
    real space projection operators read in
  non local Contribution for L=           0  read in
    real space projection operators read in
  non local Contribution for L=           0  read in
    real space projection operators read in
    PAW grid and wavefunctions read in
 
   number of l-projection  operators is LMAX  =           6
   number of lm-projection operators is LMMAX =          18
 
 POTCAR:    PAW_PBE Nb_sv 25May2007               
   VRHFIN =Nb: 4p5s4d                                                           
   LEXCH  = PE                                                                  
   EATOM  =  1555.1913 eV,  114.3033 Ry                                         
                                                                                
   TITEL  = PAW_PBE Nb_sv 25May2007                                             
   LULTRA =        F    use ultrasoft PP ?                                      
   IUNSCR =        1    unscreen: 0-lin 1-nonlin 2-no                           
   RPACOR =    1.800    partial core radius                                     
   POMASS =   92.910; ZVAL   =   13.000    mass and valenz                      
   RCORE  =    2.400    outmost cutoff radius                                   
   RWIGS  =    2.400; RWIGS  =    1.270    wigner-seitz radius (au A)           
   ENMAX  =  293.235; ENMIN  =  219.927 eV                                      
   ICORE  =        3    local potential                                         
   LCOR   =        T    correct aug charges                                     
   LPAW   =        T    paw PP                                                  
   EAUG   =  455.659                                                            
   DEXC   =    0.000                                                            
   RMAX   =    2.456    core radius for proj-oper                               
   RAUG   =    1.300    factor for augmentation sphere                          
   RDEP   =    2.451    radius for radial grids                                 
   RDEPT  =    1.956    core radius for aug-charge                              
                                                                                
   Atomic configuration                                                         
   11 entries                                                                   
     n  l   j            E        occ.                                          
     1  0  0.50    -18805.2457   2.0000                                         
     2  0  0.50     -2630.2869   2.0000                                         
     2  1  1.50     -2348.4046   6.0000                                         
     3  0  0.50      -438.8757   2.0000                                         
     3  1  1.50      -346.7588   6.0000                                         
     3  2  2.50      -196.2560  10.0000                                         
     4  0  0.50       -58.3859   2.0000                                         
     5  0  0.50        -3.9816   1.0000                                         
     4  1  1.50       -34.5141   6.0000                                         
     4  2  2.50        -3.0408   4.0000                                         
     4  3  2.50        -1.3606   0.0000                                         
   Description                                                                  
     l       E           TYP  RCUT    TYP  RCUT                                 
     0    -58.3859094     23  2.200                                             
     0     -3.9816262     23  2.200                                             
     1    -34.5140738     23  2.200                                             
     1     13.6058260     23  2.200                                             
     2     -3.0408010     23  2.200                                             
     2     -0.1283038     23  2.200                                             
     3     -1.3605826     23  2.400                                             
  local pseudopotential read in
  partial core-charges read in
  partial kinetic energy density read in
  atomic valenz-charges read in
  non local Contribution for L=           0  read in
    real space projection operators read in
  non local Contribution for L=           0  read in
    real space projection operators read in
  non local Contribution for L=           1  read in
    real space projection operators read in
  non local Contribution for L=           1  read in
    real space projection operators read in
  non local Contribution for L=           2  read in
    real space projection operators read in
  non local Contribution for L=           2  read in
    real space projection operators read in
    PAW grid and wavefunctions read in
 
   number of l-projection  operators is LMAX  =           6
   number of lm-projection operators is LMMAX =          18
 
 POTCAR:    PAW_PBE O 08Apr2002                   
   VRHFIN =O: s2p4                                                              
   LEXCH  = PE                                                                  
   EATOM  =   432.3788 eV,   31.7789 Ry                                         
                                                                                
   TITEL  = PAW_PBE O 08Apr2002                                                 
   LULTRA =        F    use ultrasoft PP ?                                      
   IUNSCR =        1    unscreen: 0-lin 1-nonlin 2-no                           
   RPACOR =    1.200    partial core radius                                     
   POMASS =   16.000; ZVAL   =    6.000    mass and valenz                      
   RCORE  =    1.520    outmost cutoff radius                                   
   RWIGS  =    1.550; RWIGS  =    0.820    wigner-seitz radius (au A)           
   ENMAX  =  400.000; ENMIN  =  300.000 eV                                      
   ICORE  =        2    local potential                                         
   LCOR   =        T    correct aug charges                                     
   LPAW   =        T    paw PP                                                  
   EAUG   =  605.392                                                            
   DEXC   =    0.000                                                            
   RMAX   =    1.553    core radius for proj-oper                               
   RAUG   =    1.300    factor for augmentation sphere                          
   RDEP   =    1.550    radius for radial grids                                 
   RDEPT  =    1.329    core radius for aug-charge                              
                                                                                
   Atomic configuration                                                         
    4 entries                                                                   
     n  l   j            E        occ.                                          
     1  0  0.50      -514.6923   2.0000                                         
     2  0  0.50       -23.9615   2.0000                                         
     2  1  0.50        -9.0305   4.0000                                         
     3  2  1.50        -9.5241   0.0000                                         
   Description                                                                  
     l       E           TYP  RCUT    TYP  RCUT                                 
     0    -23.9615318     23  1.200                                             
     0     -9.5240782     23  1.200                                             
     1     -9.0304911     23  1.520                                             
     1      8.1634956     23  1.520                                             
     2     -9.5240782      7  1.500                                             
  local pseudopotential read in
  partial core-charges read in
  partial kinetic energy density read in
  kinetic energy density of atom read in
  atomic valenz-charges read in
  non local Contribution for L=           0  read in
    real space projection operators read in
  non local Contribution for L=           0  read in
    real space projection operators read in
  non local Contribution for L=           1  read in
    real space projection operators read in
  non local Contribution for L=           1  read in
    real space projection operators read in
    PAW grid and wavefunctions read in
 
   number of l-projection  operators is LMAX  =           4
   number of lm-projection operators is LMMAX =           8
 
 Optimization of the real space projectors (new method)

 maximal supplied QI-value         = 13.42
 optimisation between [QCUT,QGAM] = [ 11.40, 28.58] = [ 36.42,228.71] Ry 
 Optimized for a Real-space Cutoff    1.54 Angstroem

   l    n(q)    QCUT    max X(q) W(low)/X(q) W(high)/X(q)  e(spline) 
   0     13    11.404    13.244    0.22E-04    0.67E-05    0.16E-05
   0     13    11.404    14.240    0.33E-04    0.75E-05    0.23E-05
   1     13    11.404     4.828    0.17E-05    0.49E-05    0.15E-05
   1     13    11.404     3.934    0.11E-04    0.19E-04    0.69E-05
   2     12    11.404    87.714    0.57E-04    0.14E-03    0.58E-05
   2     12    11.404    59.874    0.55E-04    0.13E-03    0.55E-05
 Optimization of the real space projectors (new method)

 maximal supplied QI-value         = 16.25
 optimisation between [QCUT,QGAM] = [ 11.38, 28.60] = [ 36.24,229.10] Ry 
 Optimized for a Real-space Cutoff    1.29 Angstroem

   l    n(q)    QCUT    max X(q) W(low)/X(q) W(high)/X(q)  e(spline) 
   0     11    11.376    11.234    0.17E-04    0.35E-05    0.81E-07
   0     11    11.376    12.505    0.26E-04    0.75E-05    0.85E-07
   1     11    11.376   167.359    0.17E-03    0.48E-03    0.26E-05
   1     11    11.376   168.875    0.17E-03    0.48E-03    0.26E-05
   2     10    11.376     3.435    0.57E-04    0.14E-05    0.40E-06
 Optimization of the real space projectors (new method)

 maximal supplied QI-value         = 18.90
 optimisation between [QCUT,QGAM] = [ 11.34, 28.53] = [ 36.00,228.01] Ry 
 Optimized for a Real-space Cutoff    1.18 Angstroem

   l    n(q)    QCUT    max X(q) W(low)/X(q) W(high)/X(q)  e(spline) 
   1     10    11.338     2.836    0.85E-05    0.81E-05    0.59E-07
   1     10    11.338     4.023    0.26E-04    0.17E-04    0.13E-06
   2      9    11.338    73.368    0.18E-03    0.12E-03    0.14E-06
   2      9    11.338    69.010    0.18E-03    0.12E-03    0.14E-06
   0     10    11.338    54.797    0.27E-04    0.38E-04    0.19E-06
   0     10    11.338    24.266    0.23E-04    0.33E-04    0.16E-06
 Optimization of the real space projectors (new method)

 maximal supplied QI-value         = 15.68
 optimisation between [QCUT,QGAM] = [ 11.45, 28.55] = [ 36.71,228.19] Ry 
 Optimized for a Real-space Cutoff    1.37 Angstroem

   l    n(q)    QCUT    max X(q) W(low)/X(q) W(high)/X(q)  e(spline) 
   0     12    11.450    10.201    0.23E-04    0.79E-05    0.37E-06
   0     12    11.450     8.174    0.36E-04    0.15E-04    0.72E-06
   1     11    11.450     3.488    0.48E-04    0.13E-04    0.90E-06
   1     11    11.450     4.917    0.25E-03    0.74E-04    0.50E-05
   2     11    11.450   153.744    0.34E-03    0.81E-03    0.70E-05
   2     11    11.450   126.342    0.34E-03    0.81E-03    0.70E-05
 Optimization of the real space projectors (new method)

 maximal supplied QI-value         = 24.76
 optimisation between [QCUT,QGAM] = [ 11.39, 28.47] = [ 36.31,226.95] Ry 
 Optimized for a Real-space Cutoff    0.96 Angstroem

   l    n(q)    QCUT    max X(q) W(low)/X(q) W(high)/X(q)  e(spline) 
   0      8    11.387    20.381    0.29E-03    0.90E-04    0.13E-06
   0      8    11.387    15.268    0.31E-03    0.97E-04    0.14E-06
   1      8    11.387     5.964    0.14E-03    0.34E-03    0.12E-06
   1      8    11.387     5.382    0.12E-03    0.29E-03    0.11E-06
  PAW_PBE Ba_sv 06Sep2000               :
 energy of atom  1       EATOM= -700.8560
 kinetic energy error for atom=    0.0005 (will be added to EATOM!!)
  PAW_PBE K_sv 06Sep2000                :
 energy of atom  2       EATOM= -775.0067
 kinetic energy error for atom=    0.0017 (will be added to EATOM!!)
  PAW_PBE Ni_pv 06Sep2000               :
 energy of atom  3       EATOM=-3501.1230
 kinetic energy error for atom=    0.0690 (will be added to EATOM!!)
  PAW_PBE Nb_sv 25May2007               :
 energy of atom  4       EATOM=-1555.1913
 kinetic energy error for atom=    0.0069 (will be added to EATOM!!)
  PAW_PBE O 08Apr2002                   :
 energy of atom  5       EATOM= -432.3788
 kinetic energy error for atom=    0.0224 (will be added to EATOM!!)
 
 
 POSCAR:  vasp                                   
  positions in direct lattice
  velocities in cartesian coordinates
 exchange correlation table for  LEXCH =        8
   RHO(1)=    0.500       N(1)  =     2000
   RHO(2)=  100.500       N(2)  =     4000
 


--------------------------------------------------------------------------------------------------------


 ion  position               nearest neighbor table
   1  0.989  0.977  0.018-  28 2.66  22 2.70  35 2.77  39 2.81  18 2.82  32 2.86  36 2.90  27 2.90
                            24 2.93  19 2.96  31 3.17  10 3.45   9 3.49  16 3.51  14 3.53  13 3.55
   2  0.511  0.523  0.018-  29 2.66  22 2.70  34 2.77  38 2.81  18 2.82  33 2.86  37 2.90  26 2.90
                            25 2.93  19 2.96  30 3.17  10 3.45   9 3.49  16 3.51  14 3.53  13 3.55
   3  0.511  0.977  0.018-  28 2.66  22 2.70  34 2.77  38 2.81  18 2.82  32 2.86  36 2.90  26 2.90
                            24 2.93  19 2.96  30 3.17  10 3.45   9 3.49  16 3.51  14 3.53  13 3.55
   4  0.989  0.523  0.018-  29 2.66  22 2.70  35 2.77  39 2.81  18 2.82  33 2.86  37 2.90  27 2.90
                            25 2.93  19 2.96  31 3.17  10 3.45   9 3.49  16 3.51  14 3.53  13 3.55
   5  0.990  0.976  0.507-  23 2.69  35 2.79  20 2.81  32 2.84  39 2.88  16 3.38  13 3.42   8 3.71
                             1 4.12
   6  0.510  0.524  0.507-  23 2.69  34 2.79  20 2.81  33 2.84  38 2.88  16 3.38  13 3.42   7 3.71
                             2 4.12
   7  0.510  0.976  0.507-  23 2.69  34 2.79  20 2.81  32 2.84  38 2.88  16 3.38  13 3.42   6 3.71
                             3 4.12
   8  0.990  0.524  0.507-  23 2.69  35 2.79  20 2.81  33 2.84  39 2.88  16 3.38  13 3.42   5 3.71
                             4 4.12
   9  0.250  0.750  0.773-  38 2.07  39 2.07  18 2.15   4 3.49   1 3.49   2 3.49   3 3.49
  10  0.750  0.750  0.274-  34 2.10  35 2.10  23 2.11  32 2.19  33 2.19   2 3.45   3 3.45   4 3.45
                             1 3.45
  11  0.250  0.250  0.288-  17 1.88  24 1.96  25 1.96  26 1.97  27 1.97   2 3.83   3 3.83   4 3.83
                             1 3.83
  12  0.250  0.250  0.743-  28 1.86  29 1.86  17 1.95  30 2.03  31 2.03   2 3.85   3 3.85   4 3.85
                             1 3.85
  13  0.250  0.750  0.274-  20 1.93  34 1.96  35 1.96  18 2.06  24 2.17  25 2.17   7 3.42   8 3.42
                             5 3.42   6 3.42   3 3.55   4 3.55   1 3.55   2 3.55
  14  0.750  0.250  0.246-  32 1.93  33 1.93  19 1.95  26 2.13  27 2.13  21 2.22   3 3.53   4 3.53
                             1 3.53   2 3.53
  15  0.750  0.250  0.735-  21 1.89  36 2.00  37 2.00  30 2.03  31 2.03  19 2.35   3 3.80   4 3.80
                             1 3.80   2 3.80
  16  0.750  0.750  0.750-  23 1.90  38 1.99  39 1.99  22 2.09  36 2.12  37 2.12   7 3.38   8 3.38
                             5 3.38   6 3.38   3 3.51   4 3.51   1 3.51   2 3.51
  17  0.250  0.250  0.511-  11 1.88  12 1.95
  18  0.250  0.750  0.029-  13 2.06   9 2.15   3 2.82   4 2.82   1 2.82   2 2.82
  19  0.750  0.250  0.014-  14 1.95  15 2.35   3 2.96   4 2.96   1 2.96   2 2.96
  20  0.250  0.750  0.503-  13 1.93   6 2.81   7 2.81   8 2.81   5 2.81
  21  0.750  0.250  0.510-  15 1.89  14 2.22
  22  0.750  0.750  0.999-  16 2.09   2 2.70   3 2.70   4 2.70   1 2.70
  23  0.750  0.750  0.525-  16 1.90  10 2.11   7 2.69   8 2.69   5 2.69   6 2.69
  24  0.250  0.013  0.257-  11 1.96  13 2.17   1 2.93   3 2.93
  25  0.250  0.487  0.257-  11 1.96  13 2.17   2 2.93   4 2.93
  26  0.487  0.250  0.235-  11 1.97  14 2.13   2 2.90   3 2.90
  27  0.013  0.250  0.235-  11 1.97  14 2.13   1 2.90   4 2.90
  28  0.250  0.046  0.838-  12 1.86   3 2.66   1 2.66
  29  0.250  0.454  0.838-  12 1.86   4 2.66   2 2.66
  30  0.500  0.250  0.751-  15 2.03  12 2.03   2 3.17   3 3.17
  31  1.000  0.250  0.751-  15 2.03  12 2.03   1 3.17   4 3.17
  32  0.750  0.016  0.264-  14 1.93  10 2.19   5 2.84   7 2.84   1 2.86   3 2.86
  33  0.750  0.484  0.264-  14 1.93  10 2.19   6 2.84   8 2.84   2 2.86   4 2.86
  34  0.492  0.750  0.260-  13 1.96  10 2.10   2 2.77   3 2.77   6 2.79   7 2.79
  35  0.008  0.750  0.260-  13 1.96  10 2.10   1 2.77   4 2.77   5 2.79   8 2.79
  36  0.750  0.008  0.763-  15 2.00  16 2.12   1 2.90   3 2.90
  37  0.750  0.492  0.763-  15 2.00  16 2.12   2 2.90   4 2.90
  38  0.505  0.750  0.768-  16 1.99   9 2.07   2 2.81   3 2.81   6 2.88   7 2.88
  39  0.995  0.750  0.768-  16 1.99   9 2.07   1 2.81   4 2.81   5 2.88   8 2.88
 
  LATTYP: Found a simple orthorhombic cell.
 ALAT       =     8.1082507785
 B/A-ratio  =     1.0131195483
 C/A-ratio  =     1.0371600604
  
  Lattice vectors:
  
 A1 = (   8.1082507785,   0.0000000000,   0.0000000000)
 A2 = (   0.0000000000,   8.2146273664,   0.0000000000)
 A3 = (   0.0000000000,   0.0000000000,   8.4095538670)


Analysis of symmetry for initial positions (statically):
=====================================================================
 Subroutine PRICEL returns:
 Original cell was already a primitive cell.
 

 Routine SETGRP: Setting up the symmetry group for a 
 simple orthorhombic supercell.


 Subroutine GETGRP returns: Found  4 space group operations
 (whereof  1 operations were pure point group operations)
 out of a pool of  8 trial point group operations.


The static configuration has the point symmetry C_1 .
 The point group associated with its full space group is C_2v.


Analysis of symmetry for dynamics (positions and initial velocities):
=====================================================================
 Subroutine PRICEL returns:
 Original cell was already a primitive cell.
 

 Routine SETGRP: Setting up the symmetry group for a 
 simple orthorhombic supercell.


 Subroutine GETGRP returns: Found  4 space group operations
 (whereof  1 operations were pure point group operations)
 out of a pool of  8 trial point group operations.


The dynamic configuration has the point symmetry C_1 .
 The point group associated with its full space group is C_2v.


Analysis of structural, dynamic, and magnetic symmetry:
=====================================================================
 Subroutine PRICEL returns:
 Original cell was already a primitive cell.
 

 Routine SETGRP: Setting up the symmetry group for a 
 simple orthorhombic supercell.


 Subroutine GETGRP returns: Found  4 space group operations
 (whereof  1 operations were pure point group operations)
 out of a pool of  8 trial point group operations.


The magnetic configuration has the point symmetry C_1 .
 The point group associated with its full space group is C_2v.


 Subroutine INISYM returns: Found  4 space group operations
 (whereof  1 operations are pure point group operations),
 and found     1 'primitive' translations

 
 
 KPOINTS: KPOINTS File                            

Automatic generation of k-mesh.
Space group operators:
 irot       det(A)        alpha          n_x          n_y          n_z        tau_x        tau_y        tau_z
    1     1.000000     0.000001     1.000000     0.000000     0.000000     0.000000     0.000000     0.000000
    2     1.000000   179.999999     0.000000     0.000000     1.000000     0.500000     0.500000     0.000000
    3    -1.000000   179.999999     0.000000     1.000000     0.000000     0.000000     0.500000     0.000000
    4    -1.000000   180.000000     1.000000     0.000000     0.000000     0.500000     0.000000     0.000000
 
 Subroutine IBZKPT returns following result:
 ===========================================
 
 Found      8 irreducible k-points:
 
 Following reciprocal coordinates:
            Coordinates               Weight
  0.125000  0.125000  0.125000      8.000000
  0.375000  0.125000  0.125000      8.000000
  0.125000  0.375000  0.125000      8.000000
  0.375000  0.375000  0.125000      8.000000
  0.125000  0.125000  0.375000      8.000000
  0.375000  0.125000  0.375000      8.000000
  0.125000  0.375000  0.375000      8.000000
  0.375000  0.375000  0.375000      8.000000
 
 Following cartesian coordinates:
            Coordinates               Weight
  0.015416  0.015217  0.014864      8.000000
  0.046249  0.015217  0.014864      8.000000
  0.015416  0.045650  0.014864      8.000000
  0.046249  0.045650  0.014864      8.000000
  0.015416  0.015217  0.044592      8.000000
  0.046249  0.015217  0.044592      8.000000
  0.015416  0.045650  0.044592      8.000000
  0.046249  0.045650  0.044592      8.000000
 


--------------------------------------------------------------------------------------------------------




 Dimension of arrays:
   k-points           NKPTS =      8   k-points in BZ     NKDIM =      8   number of bands    NBANDS=    214
   number of dos      NEDOS =    301   number of ions     NIONS =     39
   non local maximal  LDIM  =      6   non local SUM 2l+1 LMDIM =     18
   total plane-waves  NPLWV = 230400
   max r-space proj   IRMAX =   6330   max aug-charges    IRDMAX=  12557
   dimension x,y,z NGX =    60 NGY =   60 NGZ =   64
   dimension x,y,z NGXF=    96 NGYF=   96 NGZF=   96
   support grid    NGXF=    96 NGYF=   96 NGZF=   96
   ions per type =               4   4   2   6  23
   NGX,Y,Z   is equivalent  to a cutoff of  12.30, 12.14, 12.65 a.u.
   NGXF,Y,Z  is equivalent  to a cutoff of  19.68, 19.43, 18.98 a.u.

 SYSTEM =  Bi1Cu1O1Se1_ICSD_189174                 
 POSCAR =   vasp                                   

 Startparameter for this run:
   NWRITE =      2    write-flag & timer
   PREC   = high      normal or accurate (medium, high low for compatibility)
   ISTART =      0    job   : 0-new  1-cont  2-samecut
   ICHARG =      2    charge: 1-file 2-atom 10-const
   ISPIN  =      2    spin polarized calculation?
   LNONCOLLINEAR =      F non collinear calculations
   LSORBIT =      F    spin-orbit coupling
   INIWAV =      1    electr: 0-lowe 1-rand  2-diag
   LASPH  =      F    aspherical Exc in radial PAW
   METAGGA=      F    non-selfconsistent MetaGGA calc.

 Electronic Relaxation 1
   ENCUT  =  500.0 eV  36.75 Ry    6.06 a.u.  14.78 14.98 15.33*2*pi/ulx,y,z
   ENINI  =  500.0     initial cutoff
   ENAUG  =  703.4 eV  augmentation charge cutoff
   NELM   =    120;   NELMIN=  2; NELMDL= -5     # of ELM steps 
   EDIFF  = 0.1E-05   stopping-criterion for ELM
   LREAL  =      T    real-space projection
   NLSPLINE    = F    spline interpolate recip. space projectors
   LCOMPAT=      F    compatible to vasp.4.4
   GGA_COMPAT  = T    GGA compatible to vasp.4.4-vasp.4.6
   LMAXPAW     = -100 max onsite density
   LMAXMIX     =    4 max onsite mixed and CHGCAR
   VOSKOWN=      0    Vosko Wilk Nusair interpolation
   ROPT   =   -0.00040  -0.00040  -0.00040  -0.00040
   ROPT   =   -0.00040
 Ionic relaxation
   EDIFFG = -.5E-02   stopping-criterion for IOM
   NSW    =     75    number of steps for IOM
   NBLOCK =      1;   KBLOCK =     75    inner block; outer block 
   IBRION =      1    ionic relax: 0-MD 1-quasi-New 2-CG
   NFREE  =      0    steps in history (QN), initial steepest desc. (CG)
   ISIF   =      3    stress and relaxation
   IWAVPR =     11    prediction:  0-non 1-charg 2-wave 3-comb
   ISYM   =      2    0-nonsym 1-usesym 2-fastsym
   LCORR  =      T    Harris-Foulkes like correction to forces

   POTIM  = 0.5000    time-step for ionic-motion
   TEIN   =    0.0    initial temperature
   TEBEG  =    0.0;   TEEND  =   0.0 temperature during run
   SMASS  =  -3.00    Nose mass-parameter (am)
   estimated Nose-frequenzy (Omega)   =  0.10E-29 period in steps =****** mass=  -0.150E-26a.u.
   SCALEE = 1.0000    scale energy and forces
   NPACO  =    256;   APACO  = 16.0  distance and # of slots for P.C.
   PSTRESS=    0.0 pullay stress

  Mass of Ions in am
   POMASS = 137.33 39.10 58.69 92.91 16.00
  Ionic Valenz
   ZVAL   =  10.00  9.00 16.00 13.00  6.00
  Atomic Wigner-Seitz radii
   RWIGS  =  -1.00 -1.00 -1.00 -1.00 -1.00
  virtual crystal weights 
   VCA    =   1.00  1.00  1.00  1.00  1.00
   NELECT =     324.0000    total number of electrons
   NUPDOWN=      -1.0000    fix difference up-down

 DOS related values:
   EMIN   =  10.00;   EMAX   =-10.00  energy-range for DOS
   EFERMI =   0.00
   ISMEAR =     1;   SIGMA  =   0.10  broadening in eV -4-tet -1-fermi 0-gaus

 Electronic relaxation 2 (details)
   IALGO  =     38    algorithm
   LDIAG  =      T    sub-space diagonalisation (order eigenvalues)
   LSUBROT=      F    optimize rotation matrix (better conditioning)
   TURBO    =      0    0=normal 1=particle mesh
   IRESTART =      0    0=no restart 2=restart with 2 vectors
   NREBOOT  =      0    no. of reboots
   NMIN     =      0    reboot dimension
   EREF     =   0.00    reference energy to select bands
   IMIX   =      4    mixing-type and parameters
     AMIX     =   0.40;   BMIX     =  1.00
     AMIX_MAG =   1.60;   BMIX_MAG =  1.00
     AMIN     =   0.10
     WC   =   100.;   INIMIX=   1;  MIXPRE=   1;  MAXMIX= -45

 Intra band minimization:
   WEIMIN = 0.0010     energy-eigenvalue tresh-hold
   EBREAK =  0.12E-08  absolut break condition
   DEPER  =   0.30     relativ break condition  

   TIME   =   0.40     timestep for ELM

  volume/ion in A,a.u.               =      14.36        96.92
  Fermi-wavevector in a.u.,A,eV,Ry     =   1.364040  2.577662 25.315077  1.860606
  Thomas-Fermi vector in A             =   2.490391
 
 Write flags
   LWAVE        =      F    write WAVECAR
   LDOWNSAMPLE  =      F    k-point downsampling of WAVECAR
   LCHARG       =      F    write CHGCAR
   LVTOT        =      F    write LOCPOT, total local potential
   LVHAR        =      F    write LOCPOT, Hartree potential only
   LELF         =      F    write electronic localiz. function (ELF)
   LORBIT       =      0    0 simple, 1 ext, 2 COOP (PROOUT), +10 PAW based schemes


 Dipole corrections
   LMONO  =      F    monopole corrections only (constant potential shift)
   LDIPOL =      F    correct potential (dipole corrections)
   IDIPOL =      0    1-x, 2-y, 3-z, 4-all directions 
   EPSILON=  1.0000000 bulk dielectric constant

 LDA+U is selected, type is set to LDAUTYPE =  2
   angular momentum for each species LDAUL =     0    0    2    2    0
   U (eV)           for each species LDAUU =   0.0  0.0  5.1  2.1  0.0
   J (eV)           for each species LDAUJ =   0.0  0.0  0.0  0.0  0.0
 Exchange correlation treatment:
   GGA     =    --    GGA type
   LEXCH   =     8    internal setting for exchange type
   VOSKOWN=      0    Vosko Wilk Nusair interpolation
   LHFCALC =     F    Hartree Fock is set to
   LHFONE  =     F    Hartree Fock one center treatment
   AEXX    =    0.0000 exact exchange contribution

 Linear response parameters
   LEPSILON=     F    determine dielectric tensor
   LRPA    =     F    only Hartree local field effects (RPA)
   LNABLA  =     F    use nabla operator in PAW spheres
   LVEL    =     F    velocity operator in full k-point grid
   LINTERFAST=   F  fast interpolation
   KINTER  =     0    interpolate to denser k-point grid
   CSHIFT  =0.1000    complex shift for real part using Kramers Kronig
   OMEGAMAX=  -1.0    maximum frequency
   DEG_THRESHOLD= 0.2000000E-02 threshold for treating states as degnerate
   RTIME   =   -0.100 relaxation time in fs
  (WPLASMAI=    0.000 imaginary part of plasma frequency in eV, 0.658/RTIME)
   DFIELD  = 0.0000000 0.0000000 0.0000000 field for delta impulse in time
 
 Orbital magnetization related:
   ORBITALMAG=     F  switch on orbital magnetization
   LCHIMAG   =     F  perturbation theory with respect to B field
   DQ        =  0.001000  dq finite difference perturbation B field
   LLRAUG    =     F  two centre corrections for induced B field



--------------------------------------------------------------------------------------------------------


 quasi-Newton-method for relaxation of ions
 charge density and potential will be updated during run
 spin polarized calculation
 Variant of blocked Davidson
 Davidson routine will perform the subspace rotation
 perform sub-space diagonalisation
    after iterative eigenvector-optimisation
 modified Broyden-mixing scheme, WC =      100.0
 initial mixing is a Kerker type mixing with AMIX =  0.4000 and BMIX =      1.0000
 Hartree-type preconditioning will be used
 using additional bands           52
 real space projection scheme for non local part
 use partial core corrections
 calculate Harris-corrections to forces 
   (improved forces if not selfconsistent)
 use gradient corrections 
 use of overlap-Matrix (Vanderbilt PP)
 Methfessel and Paxton  Order N= 1 SIGMA  =   0.10


--------------------------------------------------------------------------------------------------------


  energy-cutoff  :      500.00
  volume of cell :      560.13
      direct lattice vectors                 reciprocal lattice vectors
     8.108250779  0.000000000  0.000000000     0.123331163  0.000000000  0.000000000
     0.000000000  8.214627366  0.000000000     0.000000000  0.121734067  0.000000000
     0.000000000  0.000000000  8.409553867     0.000000000  0.000000000  0.118912372

  length of vectors
     8.108250779  8.214627366  8.409553867     0.123331163  0.121734067  0.118912372


 
 k-points in units of 2pi/SCALE and weight: KPOINTS File                            
   0.01541640  0.01521676  0.01486405       0.125
   0.04624919  0.01521676  0.01486405       0.125
   0.01541640  0.04565028  0.01486405       0.125
   0.04624919  0.04565028  0.01486405       0.125
   0.01541640  0.01521676  0.04459214       0.125
   0.04624919  0.01521676  0.04459214       0.125
   0.01541640  0.04565028  0.04459214       0.125
   0.04624919  0.04565028  0.04459214       0.125
 
 k-points in reciprocal lattice and weights: KPOINTS File                            
   0.12500000  0.12500000  0.12500000       0.125
   0.37500000  0.12500000  0.12500000       0.125
   0.12500000  0.37500000  0.12500000       0.125
   0.37500000  0.37500000  0.12500000       0.125
   0.12500000  0.12500000  0.37500000       0.125
   0.37500000  0.12500000  0.37500000       0.125
   0.12500000  0.37500000  0.37500000       0.125
   0.37500000  0.37500000  0.37500000       0.125
 
 position of ions in fractional coordinates (direct lattice) 
   0.98942500  0.97732584  0.01751042
   0.51057500  0.52267416  0.01751042
   0.51057500  0.97732584  0.01751042
   0.98942500  0.52267416  0.01751042
   0.98989538  0.97608380  0.50693260
   0.51010462  0.52391620  0.50693260
   0.51010462  0.97608380  0.50693260
   0.98989538  0.52391620  0.50693260
   0.25000000  0.75000000  0.77296126
   0.75000000  0.75000000  0.27421847
   0.25000000  0.25000000  0.28801743
   0.25000000  0.25000000  0.74284111
   0.25000000  0.75000000  0.27426600
   0.75000000  0.25000000  0.24582578
   0.75000000  0.25000000  0.73453733
   0.75000000  0.75000000  0.75043833
   0.25000000  0.25000000  0.51123125
   0.25000000  0.75000000  0.02888150
   0.75000000  0.25000000  0.01424966
   0.25000000  0.75000000  0.50324624
   0.75000000  0.25000000  0.50991937
   0.75000000  0.75000000  0.99901495
   0.75000000  0.75000000  0.52497545
   0.25000000  0.01298045  0.25699972
   0.25000000  0.48701955  0.25699972
   0.48726527  0.25000000  0.23532543
   0.01273473  0.25000000  0.23532543
   0.25000000  0.04597518  0.83798902
   0.25000000  0.45402482  0.83798902
   0.50041844  0.25000000  0.75126690
   0.99958156  0.25000000  0.75126690
   0.75000000  0.01609974  0.26366922
   0.75000000  0.48390026  0.26366922
   0.49189142  0.75000000  0.26001628
   0.00810858  0.75000000  0.26001628
   0.75000000  0.00807536  0.76342888
   0.75000000  0.49192464  0.76342888
   0.50488127  0.75000000  0.76833493
   0.99511873  0.75000000  0.76833493
 
 position of ions in cartesian coordinates  (Angst):
   8.02250600  8.02836758  0.14725485
   4.13987017  4.29357347  0.14725485
   4.13987017  8.02836758  0.14725485
   8.02250600  4.29357347  0.14725485
   8.02632001  8.01816473  4.26307702
   4.13605616  4.30377632  4.26307702
   4.13605616  8.01816473  4.26307702
   8.02632001  4.30377632  4.26307702
   2.02706269  6.16097052  6.50025932
   6.08118808  6.16097052  2.30605500
   2.02706269  2.05365684  2.42209811
   2.02706269  2.05365684  6.24696236
   2.02706269  6.16097052  2.30645466
   6.08118808  2.05365684  2.06728516
   6.08118808  2.05365684  6.17713122
   6.08118808  6.16097052  6.31085159
   2.02706269  2.05365684  4.29922672
   2.02706269  6.16097052  0.24288049
   6.08118808  2.05365684  0.11983325
   2.02706269  6.16097052  4.23207639
   6.08118808  2.05365684  4.28819437
   6.08118808  6.16097052  8.40127003
   6.08118808  6.16097052  4.41480936
   2.02706269  0.10662958  2.16125297
   2.02706269  4.00068411  2.16125297
   3.95086901  2.05365684  1.97898189
   0.10325638  2.05365684  1.97898189
   2.02706269  0.37766901  7.04711382
   2.02706269  3.72964467  7.04711382
   4.05751824  2.05365684  6.31781944
   8.10485793  2.05365684  6.31781944
   6.08118808  0.13225340  2.21734054
   6.08118808  3.97506028  2.21734054
   3.98837901  6.16097052  2.18662094
   0.06574638  6.16097052  2.18662094
   6.08118808  0.06633610  6.42009632
   6.08118808  4.04097759  6.42009632
   4.09370391  6.16097052  6.46135398
   8.06867225  6.16097052  6.46135398
 


--------------------------------------------------------------------------------------------------------


 k-point  1 :   0.1250 0.1250 0.1250  plane waves:   14214
 k-point  2 :   0.3750 0.1250 0.1250  plane waves:   14237
 k-point  3 :   0.1250 0.3750 0.1250  plane waves:   14235
 k-point  4 :   0.3750 0.3750 0.1250  plane waves:   14216
 k-point  5 :   0.1250 0.1250 0.3750  plane waves:   14214
 k-point  6 :   0.3750 0.1250 0.3750  plane waves:   14209
 k-point  7 :   0.1250 0.3750 0.3750  plane waves:   14222
 k-point  8 :   0.3750 0.3750 0.3750  plane waves:   14224

 maximum and minimum number of plane-waves per node :       911      862

 maximum number of plane-waves:     14237
 maximum index in each direction: 
   IXMAX=   14   IYMAX=   14   IZMAX=   15
   IXMIN=  -15   IYMIN=  -15   IZMIN=  -15


 real space projection operators:
  total allocation   :      11358.20 KBytes
  max/ min on nodes  :        864.31        613.69


 parallel 3D FFT for wavefunctions:
    minimum data exchange during FFTs selected (reduces bandwidth)
 parallel 3D FFT for charge:
    minimum data exchange during FFTs selected (reduces bandwidth)


 total amount of memory used by VASP MPI-rank0    96642. kBytes
=======================================================================

   base      :      30000. kBytes
   nonlr-proj:       5256. kBytes
   fftplans  :       2435. kBytes
   grid      :       7088. kBytes
   one-center:         93. kBytes
   wavefun   :      51770. kBytes
 
     INWAV:  cpu time    0.0001: real time    0.0005
 Broyden mixing: mesh for mixing (old mesh)
   NGX = 29   NGY = 29   NGZ = 31
  (NGX  = 96   NGY  = 96   NGZ  = 96)
  gives a total of  26071 points

 initial charge density was supplied:
 charge density of overlapping atoms calculated
 number of electron     324.0000000 magnetization      39.0000000
 keeping initial charge density in first step


--------------------------------------------------------------------------------------------------------


 Maximum index for non-local projection operator          407
 Maximum index for augmentation-charges          621 (set IRDMAX)


--------------------------------------------------------------------------------------------------------


 First call to EWALD:  gamma=   0.215
 Maximum number of real-space cells 3x 3x 3
 Maximum number of reciprocal cells 3x 3x 3

    FEWALD:  cpu time    0.0024: real time    0.0024


--------------------------------------- Iteration      1(   1)  ---------------------------------------


    POTLOK:  cpu time    0.0875: real time    0.0935
    SETDIJ:  cpu time    0.0201: real time    0.0201
     EDDAV:  cpu time   17.4242: real time   17.4382
       DOS:  cpu time    0.0081: real time    0.0081
    --------------------------------------------
      LOOP:  cpu time   17.5398: real time   17.5600

 eigenvalue-minimisations  :  7104
 total energy-change (2. order) : 0.3385380E+04  (-0.1725462E+05)
 number of electron     324.0000000 magnetization      39.0000000
 augmentation part      324.0000000 magnetization      39.0000000

 Free energy of the ion-electron system (eV)
  ---------------------------------------------------
  alpha Z        PSCENC =      1754.07391684
  Ewald energy   TEWEN  =    -22792.54568904
  -Hartree energ DENC   =     -9000.05206978
  -exchange      EXHF   =         0.00000000
  -V(xc)+E(xc)   XCENC  =      1404.02305550
  PAW double counting   =     25642.25965449   -25778.45180652
  entropy T*S    EENTRO =        -0.00213523
  eigenvalues    EBANDS =       -24.77975558
  atomic energy  EATOM  =     32180.85449221
  Solvation  Ediel_sol  =         0.00000000
  ---------------------------------------------------
  free energy    TOTEN  =      3385.37966289 eV

  energy without entropy =     3385.38179812  energy(sigma->0) =     3385.38037463


--------------------------------------------------------------------------------------------------------




--------------------------------------- Iteration      1(   2)  ---------------------------------------


     EDDAV:  cpu time   19.5983: real time   19.6179
       DOS:  cpu time    0.0083: real time    0.0083
    --------------------------------------------
      LOOP:  cpu time   19.6067: real time   19.6263

 eigenvalue-minimisations  :  8286
 total energy-change (2. order) :-0.3325597E+04  (-0.3119073E+04)
 number of electron     324.0000000 magnetization      39.0000000
 augmentation part      324.0000000 magnetization      39.0000000

 Free energy of the ion-electron system (eV)
  ---------------------------------------------------
  alpha Z        PSCENC =      1754.07391684
  Ewald energy   TEWEN  =    -22792.54568904
  -Hartree energ DENC   =     -9000.05206978
  -exchange      EXHF   =         0.00000000
  -V(xc)+E(xc)   XCENC  =      1404.02305550
  PAW double counting   =     25642.25965449   -25778.45180652
  entropy T*S    EENTRO =         0.00063704
  eigenvalues    EBANDS =     -3350.37978094
  atomic energy  EATOM  =     32180.85449221
  Solvation  Ediel_sol  =         0.00000000
  ---------------------------------------------------
  free energy    TOTEN  =        59.78240979 eV

  energy without entropy =       59.78177275  energy(sigma->0) =       59.78219745


--------------------------------------------------------------------------------------------------------




--------------------------------------- Iteration      1(   3)  ---------------------------------------


     EDDAV:  cpu time   23.4572: real time   23.4761
       DOS:  cpu time    0.0081: real time    0.0081
    --------------------------------------------
      LOOP:  cpu time   23.4653: real time   23.4842

 eigenvalue-minimisations  : 10328
 total energy-change (2. order) :-0.3726445E+03  (-0.3680344E+03)
 number of electron     324.0000000 magnetization      39.0000000
 augmentation part      324.0000000 magnetization      39.0000000

 Free energy of the ion-electron system (eV)
  ---------------------------------------------------
  alpha Z        PSCENC =      1754.07391684
  Ewald energy   TEWEN  =    -22792.54568904
  -Hartree energ DENC   =     -9000.05206978
  -exchange      EXHF   =         0.00000000
  -V(xc)+E(xc)   XCENC  =      1404.02305550
  PAW double counting   =     25642.25965449   -25778.45180652
  entropy T*S    EENTRO =         0.00991377
  eigenvalues    EBANDS =     -3723.03355163
  atomic energy  EATOM  =     32180.85449221
  Solvation  Ediel_sol  =         0.00000000
  ---------------------------------------------------
  free energy    TOTEN  =      -312.86208416 eV

  energy without entropy =     -312.87199794  energy(sigma->0) =     -312.86538875


--------------------------------------------------------------------------------------------------------




--------------------------------------- Iteration      1(   4)  ---------------------------------------


     EDDAV:  cpu time   24.6380: real time   24.6602
       DOS:  cpu time    0.0076: real time    0.0076
    --------------------------------------------
      LOOP:  cpu time   24.6456: real time   24.6678

 eigenvalue-minimisations  : 10952
 total energy-change (2. order) :-0.1946270E+02  (-0.1936857E+02)
 number of electron     324.0000000 magnetization      39.0000000
 augmentation part      324.0000000 magnetization      39.0000000

 Free energy of the ion-electron system (eV)
  ---------------------------------------------------
  alpha Z        PSCENC =      1754.07391684
  Ewald energy   TEWEN  =    -22792.54568904
  -Hartree energ DENC   =     -9000.05206978
  -exchange      EXHF   =         0.00000000
  -V(xc)+E(xc)   XCENC  =      1404.02305550
  PAW double counting   =     25642.25965449   -25778.45180652
  entropy T*S    EENTRO =         0.00718229
  eigenvalues    EBANDS =     -3742.49352291
  atomic energy  EATOM  =     32180.85449221
  Solvation  Ediel_sol  =         0.00000000
  ---------------------------------------------------
  free energy    TOTEN  =      -332.32478692 eV

  energy without entropy =     -332.33196921  energy(sigma->0) =     -332.32718102


--------------------------------------------------------------------------------------------------------




--------------------------------------- Iteration      1(   5)  ---------------------------------------


     EDDAV:  cpu time   27.0249: real time   27.0383
       DOS:  cpu time    0.0082: real time    0.0082
    CHARGE:  cpu time    0.7986: real time    0.8017
    MIXING:  cpu time    0.0019: real time    0.0020
    --------------------------------------------
      LOOP:  cpu time   27.8335: real time   27.8501

 eigenvalue-minimisations  : 12296
 total energy-change (2. order) :-0.1213675E+01  (-0.1212573E+01)
 number of electron     324.0000074 magnetization      18.9381993
 augmentation part       43.6250260 magnetization      18.1899013

 Broyden mixing:
  rms(total) = 0.61959E+01    rms(broyden)= 0.61876E+01
  rms(prec ) = 0.83281E+01
  weight for this iteration     100.00

 Free energy of the ion-electron system (eV)
  ---------------------------------------------------
  alpha Z        PSCENC =      1754.07391684
  Ewald energy   TEWEN  =    -22792.54568904
  -Hartree energ DENC   =     -9000.05206978
  -exchange      EXHF   =         0.00000000
  -V(xc)+E(xc)   XCENC  =      1404.02305550
  PAW double counting   =     25642.25965449   -25778.45180652
  entropy T*S    EENTRO =         0.00708848
  eigenvalues    EBANDS =     -3743.70710363
  atomic energy  EATOM  =     32180.85449221
  Solvation  Ediel_sol  =         0.00000000
  ---------------------------------------------------
  free energy    TOTEN  =      -333.53846145 eV

  energy without entropy =     -333.54554993  energy(sigma->0) =     -333.54082428


--------------------------------------------------------------------------------------------------------




--------------------------------------- Iteration      1(   6)  ---------------------------------------


    POTLOK:  cpu time    0.0842: real time    0.0843
    SETDIJ:  cpu time    0.0200: real time    0.0200
     EDDAV:  cpu time   22.0582: real time   22.0642
       DOS:  cpu time    0.0078: real time    0.0078
    CHARGE:  cpu time    0.7451: real time    0.7452
    MIXING:  cpu time    0.0020: real time    0.0020
    --------------------------------------------
      LOOP:  cpu time   22.9172: real time   22.9234

 eigenvalue-minimisations  :  9712
 total energy-change (2. order) : 0.5980831E+02  (-0.3608674E+02)
 number of electron     324.0000095 magnetization      12.3352224
 augmentation part       41.5964647 magnetization      10.5960356

 Broyden mixing:
  rms(total) = 0.34699E+01    rms(broyden)= 0.34675E+01
  rms(prec ) = 0.37774E+01
  weight for this iteration     100.00

 eigenvalues of (default mixing * dielectric matrix)
  average eigenvalue GAMMA=   0.7274
  0.7274

 Free energy of the ion-electron system (eV)
  ---------------------------------------------------
  alpha Z        PSCENC =      1754.07391684
  Ewald energy   TEWEN  =    -22792.54568904
  -Hartree energ DENC   =     -9086.12348549
  -exchange      EXHF   =         0.00000000
  -V(xc)+E(xc)   XCENC  =      1422.45190136
  PAW double counting   =     27498.13275773   -27640.87936449
  entropy T*S    EENTRO =         0.00233990
  eigenvalues    EBANDS =     -3609.69702382
  atomic energy  EATOM  =     32180.85449221
  Solvation  Ediel_sol  =         0.00000000
  ---------------------------------------------------
  free energy    TOTEN  =      -273.73015480 eV

  energy without entropy =     -273.73249470  energy(sigma->0) =     -273.73093477


--------------------------------------------------------------------------------------------------------




--------------------------------------- Iteration      1(   7)  ---------------------------------------


    POTLOK:  cpu time    0.0846: real time    0.0848
    SETDIJ:  cpu time    0.0200: real time    0.0200
     EDDAV:  cpu time   23.8217: real time   23.8338
       DOS:  cpu time    0.0077: real time    0.0077
    CHARGE:  cpu time    0.7384: real time    0.7386
    MIXING:  cpu time    0.0022: real time    0.0026
    --------------------------------------------
      LOOP:  cpu time   24.6746: real time   24.6875

 eigenvalue-minimisations  : 10664
 total energy-change (2. order) :-0.3759658E+01  (-0.3970442E+01)
 number of electron     324.0000095 magnetization       7.6601089
 augmentation part       40.5283140 magnetization       6.1660162

 Broyden mixing:
  rms(total) = 0.15402E+01    rms(broyden)= 0.15402E+01
  rms(prec ) = 0.16926E+01
  weight for this iteration     100.00

 eigenvalues of (default mixing * dielectric matrix)
  average eigenvalue GAMMA=   0.7511
  0.7511  0.7511

 Free energy of the ion-electron system (eV)
  ---------------------------------------------------
  alpha Z        PSCENC =      1754.07391684
  Ewald energy   TEWEN  =    -22792.54568904
  -Hartree energ DENC   =     -9055.87373877
  -exchange      EXHF   =         0.00000000
  -V(xc)+E(xc)   XCENC  =      1415.13755407
  PAW double counting   =     28606.50229083   -28766.10612376
  entropy T*S    EENTRO =         0.00323600
  eigenvalues    EBANDS =     -3619.53575096
  atomic energy  EATOM  =     32180.85449221
  Solvation  Ediel_sol  =         0.00000000
  ---------------------------------------------------
  free energy    TOTEN  =      -277.48981259 eV

  energy without entropy =     -277.49304858  energy(sigma->0) =     -277.49089125


--------------------------------------------------------------------------------------------------------




--------------------------------------- Iteration      1(   8)  ---------------------------------------


    POTLOK:  cpu time    0.0843: real time    0.0846
    SETDIJ:  cpu time    0.0262: real time    0.0262
     EDDAV:  cpu time   23.0135: real time   23.0196
       DOS:  cpu time    0.0079: real time    0.0079
    CHARGE:  cpu time    0.7316: real time    0.7318
    MIXING:  cpu time    0.0022: real time    0.0022
    --------------------------------------------
      LOOP:  cpu time   23.8658: real time   23.8722

 eigenvalue-minimisations  : 10216
 total energy-change (2. order) :-0.1002356E+01  (-0.5240331E+00)
 number of electron     324.0000089 magnetization       4.0055852
 augmentation part       40.2689110 magnetization       2.6573442

 Broyden mixing:
  rms(total) = 0.10032E+01    rms(broyden)= 0.10031E+01
  rms(prec ) = 0.10969E+01
  weight for this iteration     100.00

 eigenvalues of (default mixing * dielectric matrix)
  average eigenvalue GAMMA=   1.0013
  1.5828  0.8449  0.5761

 Free energy of the ion-electron system (eV)
  ---------------------------------------------------
  alpha Z        PSCENC =      1754.07391684
  Ewald energy   TEWEN  =    -22792.54568904
  -Hartree energ DENC   =     -9037.30306520
  -exchange      EXHF   =         0.00000000
  -V(xc)+E(xc)   XCENC  =      1413.46973384
  PAW double counting   =     29444.86076131   -29600.16041160
  entropy T*S    EENTRO =         0.00423407
  eigenvalues    EBANDS =     -3641.74614136
  atomic energy  EATOM  =     32180.85449221
  Solvation  Ediel_sol  =         0.00000000
  ---------------------------------------------------
  free energy    TOTEN  =      -278.49216891 eV

  energy without entropy =     -278.49640299  energy(sigma->0) =     -278.49358027


--------------------------------------------------------------------------------------------------------




--------------------------------------- Iteration      1(   9)  ---------------------------------------


    POTLOK:  cpu time    0.0836: real time    0.0838
    SETDIJ:  cpu time    0.0200: real time    0.0200
     EDDAV:  cpu time   24.1896: real time   24.2007
       DOS:  cpu time    0.0079: real time    0.0079
    CHARGE:  cpu time    0.7480: real time    0.7480
    MIXING:  cpu time    0.0024: real time    0.0028
    --------------------------------------------
      LOOP:  cpu time   25.0515: real time   25.0632

 eigenvalue-minimisations  : 10856
 total energy-change (2. order) :-0.2895149E+00  (-0.1431304E+00)
 number of electron     324.0000091 magnetization       3.1335037
 augmentation part       40.3310068 magnetization       1.8797252

 Broyden mixing:
  rms(total) = 0.47929E+00    rms(broyden)= 0.47925E+00
  rms(prec ) = 0.52406E+00
  weight for this iteration     100.00

 eigenvalues of (default mixing * dielectric matrix)
  average eigenvalue GAMMA=   1.1118
  2.1920  0.9300  0.6625  0.6625

 Free energy of the ion-electron system (eV)
  ---------------------------------------------------
  alpha Z        PSCENC =      1754.07391684
  Ewald energy   TEWEN  =    -22792.54568904
  -Hartree energ DENC   =     -9025.11715202
  -exchange      EXHF   =         0.00000000
  -V(xc)+E(xc)   XCENC  =      1413.09243289
  PAW double counting   =     30246.67161776   -30394.78114823
  entropy T*S    EENTRO =         0.00344120
  eigenvalues    EBANDS =     -3661.03359542
  atomic energy  EATOM  =     32180.85449221
  Solvation  Ediel_sol  =         0.00000000
  ---------------------------------------------------
  free energy    TOTEN  =      -278.78168381 eV

  energy without entropy =     -278.78512501  energy(sigma->0) =     -278.78283088


--------------------------------------------------------------------------------------------------------




--------------------------------------- Iteration      1(  10)  ---------------------------------------


    POTLOK:  cpu time    0.0841: real time    0.0842
    SETDIJ:  cpu time    0.0200: real time    0.0200
     EDDAV:  cpu time   22.4225: real time   22.4326
       DOS:  cpu time    0.0078: real time    0.0078
    CHARGE:  cpu time    0.7517: real time    0.7521
    MIXING:  cpu time    0.0024: real time    0.0024
    --------------------------------------------
      LOOP:  cpu time   23.2886: real time   23.2992

 eigenvalue-minimisations  :  9880
 total energy-change (2. order) :-0.4214621E-01  (-0.3627101E-01)
 number of electron     324.0000091 magnetization       3.6536945
 augmentation part       40.2438373 magnetization       2.4253647

 Broyden mixing:
  rms(total) = 0.15280E+00    rms(broyden)= 0.15276E+00
  rms(prec ) = 0.17489E+00
  weight for this iteration     100.00

 eigenvalues of (default mixing * dielectric matrix)
  average eigenvalue GAMMA=   1.0922
  2.3603  1.0070  0.6913  0.7012  0.7012

 Free energy of the ion-electron system (eV)
  ---------------------------------------------------
  alpha Z        PSCENC =      1754.07391684
  Ewald energy   TEWEN  =    -22792.54568904
  -Hartree energ DENC   =     -9038.77464577
  -exchange      EXHF   =         0.00000000
  -V(xc)+E(xc)   XCENC  =      1413.81950401
  PAW double counting   =     30649.55434378   -30794.33118271
  entropy T*S    EENTRO =         0.00341211
  eigenvalues    EBANDS =     -3651.47798145
  atomic energy  EATOM  =     32180.85449221
  Solvation  Ediel_sol  =         0.00000000
  ---------------------------------------------------
  free energy    TOTEN  =      -278.82383002 eV

  energy without entropy =     -278.82724213  energy(sigma->0) =     -278.82496739


--------------------------------------------------------------------------------------------------------




--------------------------------------- Iteration      1(  11)  ---------------------------------------


    POTLOK:  cpu time    0.0836: real time    0.0838
    SETDIJ:  cpu time    0.0201: real time    0.0201
     EDDAV:  cpu time   21.8223: real time   21.8303
       DOS:  cpu time    0.0077: real time    0.0077
    CHARGE:  cpu time    0.7556: real time    0.7556
    MIXING:  cpu time    0.0026: real time    0.0026
    --------------------------------------------
      LOOP:  cpu time   22.6919: real time   22.7000

 eigenvalue-minimisations  :  9600
 total energy-change (2. order) :-0.1579077E-01  (-0.8932356E-02)
 number of electron     324.0000091 magnetization       3.9235477
 augmentation part       40.1877110 magnetization       2.6832589

 Broyden mixing:
  rms(total) = 0.91664E-01    rms(broyden)= 0.91655E-01
  rms(prec ) = 0.99745E-01
  weight for this iteration     100.00

 eigenvalues of (default mixing * dielectric matrix)
  average eigenvalue GAMMA=   1.1243
  2.4766  1.3873  0.9309  0.6807  0.6807  0.5895

 Free energy of the ion-electron system (eV)
  ---------------------------------------------------
  alpha Z        PSCENC =      1754.07391684
  Ewald energy   TEWEN  =    -22792.54568904
  -Hartree energ DENC   =     -9049.88702415
  -exchange      EXHF   =         0.00000000
  -V(xc)+E(xc)   XCENC  =      1414.33992332
  PAW double counting   =     30715.06861641   -30858.03789922
  entropy T*S    EENTRO =         0.00346072
  eigenvalues    EBANDS =     -3642.70941788
  atomic energy  EATOM  =     32180.85449221
  Solvation  Ediel_sol  =         0.00000000
  ---------------------------------------------------
  free energy    TOTEN  =      -278.83962078 eV

  energy without entropy =     -278.84308151  energy(sigma->0) =     -278.84077436


--------------------------------------------------------------------------------------------------------




--------------------------------------- Iteration      1(  12)  ---------------------------------------


    POTLOK:  cpu time    0.0843: real time    0.0845
    SETDIJ:  cpu time    0.0201: real time    0.0201
     EDDAV:  cpu time   24.3904: real time   24.4013
       DOS:  cpu time    0.0080: real time    0.0080
    CHARGE:  cpu time    0.7662: real time    0.7669
    MIXING:  cpu time    0.0027: real time    0.0027
    --------------------------------------------
      LOOP:  cpu time   25.2717: real time   25.2836

 eigenvalue-minimisations  : 11000
 total energy-change (2. order) :-0.4929907E-02  (-0.1769610E-02)
 number of electron     324.0000091 magnetization       3.9915355
 augmentation part       40.1788262 magnetization       2.7446741

 Broyden mixing:
  rms(total) = 0.34995E-01    rms(broyden)= 0.34991E-01
  rms(prec ) = 0.40042E-01
  weight for this iteration     100.00

 eigenvalues of (default mixing * dielectric matrix)
  average eigenvalue GAMMA=   1.0987
  2.5498  1.5200  0.9745  0.7053  0.7053  0.6550  0.5813

 Free energy of the ion-electron system (eV)
  ---------------------------------------------------
  alpha Z        PSCENC =      1754.07391684
  Ewald energy   TEWEN  =    -22792.54568904
  -Hartree energ DENC   =     -9054.16583968
  -exchange      EXHF   =         0.00000000
  -V(xc)+E(xc)   XCENC  =      1414.55281786
  PAW double counting   =     30739.86509428   -30881.63897467
  entropy T*S    EENTRO =         0.00345832
  eigenvalues    EBANDS =     -3639.84382682
  atomic energy  EATOM  =     32180.85449221
  Solvation  Ediel_sol  =         0.00000000
  ---------------------------------------------------
  free energy    TOTEN  =      -278.84455069 eV

  energy without entropy =     -278.84800901  energy(sigma->0) =     -278.84570346


--------------------------------------------------------------------------------------------------------




--------------------------------------- Iteration      1(  13)  ---------------------------------------


    POTLOK:  cpu time    0.0839: real time    0.0842
    SETDIJ:  cpu time    0.0201: real time    0.0201
     EDDAV:  cpu time   21.4288: real time   21.4352
       DOS:  cpu time    0.0077: real time    0.0077
    CHARGE:  cpu time    0.7582: real time    0.7584
    MIXING:  cpu time    0.0029: real time    0.0029
    --------------------------------------------
      LOOP:  cpu time   22.3016: real time   22.3085

 eigenvalue-minimisations  :  9392
 total energy-change (2. order) :-0.1246806E-02  (-0.2935141E-03)
 number of electron     324.0000091 magnetization       4.0289611
 augmentation part       40.1793607 magnetization       2.7801412

 Broyden mixing:
  rms(total) = 0.21414E-01    rms(broyden)= 0.21412E-01
  rms(prec ) = 0.23744E-01
  weight for this iteration     100.00

 eigenvalues of (default mixing * dielectric matrix)
  average eigenvalue GAMMA=   1.1350
  2.6860  1.8003  1.1295  0.8873  0.6914  0.6914  0.6544  0.5397

 Free energy of the ion-electron system (eV)
  ---------------------------------------------------
  alpha Z        PSCENC =      1754.07391684
  Ewald energy   TEWEN  =    -22792.54568904
  -Hartree energ DENC   =     -9055.45679559
  -exchange      EXHF   =         0.00000000
  -V(xc)+E(xc)   XCENC  =      1414.61470667
  PAW double counting   =     30754.72877681   -30895.84478534
  entropy T*S    EENTRO =         0.00345462
  eigenvalues    EBANDS =     -3639.27387468
  atomic energy  EATOM  =     32180.85449221
  Solvation  Ediel_sol  =         0.00000000
  ---------------------------------------------------
  free energy    TOTEN  =      -278.84579750 eV

  energy without entropy =     -278.84925212  energy(sigma->0) =     -278.84694904


--------------------------------------------------------------------------------------------------------




--------------------------------------- Iteration      1(  14)  ---------------------------------------


    POTLOK:  cpu time    0.0838: real time    0.0840
    SETDIJ:  cpu time    0.0201: real time    0.0201
     EDDAV:  cpu time   21.6830: real time   21.6905
       DOS:  cpu time    0.0077: real time    0.0077
    CHARGE:  cpu time    0.7676: real time    0.7676
    MIXING:  cpu time    0.0031: real time    0.0031
    --------------------------------------------
      LOOP:  cpu time   22.5653: real time   22.5729

 eigenvalue-minimisations  :  9552
 total energy-change (2. order) :-0.4023069E-03  (-0.7652838E-04)
 number of electron     324.0000091 magnetization       4.0405359
 augmentation part       40.1827421 magnetization       2.7900973

 Broyden mixing:
  rms(total) = 0.95503E-02    rms(broyden)= 0.95491E-02
  rms(prec ) = 0.11091E-01
  weight for this iteration     100.00

 eigenvalues of (default mixing * dielectric matrix)
  average eigenvalue GAMMA=   1.1714
  2.7135  2.1037  1.2565  1.0535  0.8124  0.7010  0.7010  0.6007  0.6007

 Free energy of the ion-electron system (eV)
  ---------------------------------------------------
  alpha Z        PSCENC =      1754.07391684
  Ewald energy   TEWEN  =    -22792.54568904
  -Hartree energ DENC   =     -9055.90390576
  -exchange      EXHF   =         0.00000000
  -V(xc)+E(xc)   XCENC  =      1414.63315451
  PAW double counting   =     30756.63655620   -30897.37659287
  entropy T*S    EENTRO =         0.00344325
  eigenvalues    EBANDS =     -3639.22157515
  atomic energy  EATOM  =     32180.85449221
  Solvation  Ediel_sol  =         0.00000000
  ---------------------------------------------------
  free energy    TOTEN  =      -278.84619980 eV

  energy without entropy =     -278.84964305  energy(sigma->0) =     -278.84734755


--------------------------------------------------------------------------------------------------------




--------------------------------------- Iteration      1(  15)  ---------------------------------------


    POTLOK:  cpu time    0.0838: real time    0.0840
    SETDIJ:  cpu time    0.0200: real time    0.0200
     EDDAV:  cpu time   21.1398: real time   21.1490
       DOS:  cpu time    0.0077: real time    0.0077
    CHARGE:  cpu time    0.7750: real time    0.7750
    MIXING:  cpu time    0.0033: real time    0.0033
    --------------------------------------------
      LOOP:  cpu time   22.0295: real time   22.0390

 eigenvalue-minimisations  :  9248
 total energy-change (2. order) :-0.1450277E-03  (-0.2798129E-04)
 number of electron     324.0000091 magnetization       4.0332795
 augmentation part       40.1847327 magnetization       2.7822719

 Broyden mixing:
  rms(total) = 0.36751E-02    rms(broyden)= 0.36729E-02
  rms(prec ) = 0.44283E-02
  weight for this iteration     100.00

 eigenvalues of (default mixing * dielectric matrix)
  average eigenvalue GAMMA=   1.1862
  2.6342  2.4436  1.2961  1.2961  0.8287  0.7356  0.7356  0.6475  0.6475  0.5975

 Free energy of the ion-electron system (eV)
  ---------------------------------------------------
  alpha Z        PSCENC =      1754.07391684
  Ewald energy   TEWEN  =    -22792.54568904
  -Hartree energ DENC   =     -9056.15265605
  -exchange      EXHF   =         0.00000000
  -V(xc)+E(xc)   XCENC  =      1414.63974995
  PAW double counting   =     30752.89509371   -30893.45595820
  entropy T*S    EENTRO =         0.00343724
  eigenvalues    EBANDS =     -3639.15873151
  atomic energy  EATOM  =     32180.85449221
  Solvation  Ediel_sol  =         0.00000000
  ---------------------------------------------------
  free energy    TOTEN  =      -278.84634483 eV

  energy without entropy =     -278.84978207  energy(sigma->0) =     -278.84749058


--------------------------------------------------------------------------------------------------------




--------------------------------------- Iteration      1(  16)  ---------------------------------------


    POTLOK:  cpu time    0.0843: real time    0.0845
    SETDIJ:  cpu time    0.0201: real time    0.0201
     EDDAV:  cpu time   21.7854: real time   21.7886
       DOS:  cpu time    0.0074: real time    0.0074
    CHARGE:  cpu time    0.7595: real time    0.7595
    MIXING:  cpu time    0.0036: real time    0.0044
    --------------------------------------------
      LOOP:  cpu time   22.6603: real time   22.6644

 eigenvalue-minimisations  :  9512
 total energy-change (2. order) :-0.3568018E-04  (-0.7220166E-05)
 number of electron     324.0000091 magnetization       4.0254204
 augmentation part       40.1864669 magnetization       2.7743161

 Broyden mixing:
  rms(total) = 0.22136E-02    rms(broyden)= 0.22134E-02
  rms(prec ) = 0.26108E-02
  weight for this iteration     100.00

 eigenvalues of (default mixing * dielectric matrix)
  average eigenvalue GAMMA=   1.1643
  2.7523  2.3992  1.4989  1.1249  0.9045  0.9045  0.7126  0.7126  0.5906  0.6033
  0.6033

 Free energy of the ion-electron system (eV)
  ---------------------------------------------------
  alpha Z        PSCENC =      1754.07391684
  Ewald energy   TEWEN  =    -22792.54568904
  -Hartree energ DENC   =     -9056.21255299
  -exchange      EXHF   =         0.00000000
  -V(xc)+E(xc)   XCENC  =      1414.64195150
  PAW double counting   =     30749.98269151   -30890.52953122
  entropy T*S    EENTRO =         0.00343912
  eigenvalues    EBANDS =     -3639.11509845
  atomic energy  EATOM  =     32180.85449221
  Solvation  Ediel_sol  =         0.00000000
  ---------------------------------------------------
  free energy    TOTEN  =      -278.84638051 eV

  energy without entropy =     -278.84981963  energy(sigma->0) =     -278.84752689


--------------------------------------------------------------------------------------------------------




--------------------------------------- Iteration      1(  17)  ---------------------------------------


    POTLOK:  cpu time    0.0843: real time    0.0847
    SETDIJ:  cpu time    0.0201: real time    0.0201
     EDDAV:  cpu time   21.0826: real time   21.0933
       DOS:  cpu time    0.0077: real time    0.0077
    CHARGE:  cpu time    0.7599: real time    0.7599
    MIXING:  cpu time    0.0037: real time    0.0037
    --------------------------------------------
      LOOP:  cpu time   21.9583: real time   21.9694

[...]
 -0.001   0.001  -0.005   0.000  -0.000  -0.001   0.000  -0.000
  0.001  -0.001   0.001  -0.000   0.009   0.001  -0.000   0.002
  0.000  -0.000  -0.000   0.009  -0.000   0.000   0.002  -0.000
 -0.001   0.001  -0.005  -0.000  -0.000  -0.001  -0.000  -0.000
  0.002  -0.002  -0.000   0.000   0.001  -0.000   0.000   0.000
 -0.002   0.001  -0.008   0.000  -0.001  -0.001   0.000  -0.000
 pseudopotential strength for first ion, spin component:           2
  1.181  -5.007   0.018   0.000   0.000  -0.001  -0.000   0.000
 -5.007   0.664  -0.011  -0.000  -0.000   0.005   0.000   0.000
  0.018  -0.011  -7.687   0.000   0.000   4.453   0.000   0.000
  0.000  -0.000   0.000  -7.689   0.001   0.000   4.449   0.002
  0.000  -0.000   0.000   0.001  -7.689   0.000   0.002   4.449
 -0.001   0.005   4.453   0.000   0.000   6.774  -0.000  -0.000
 -0.000   0.000   0.000   4.449   0.002  -0.000   6.777  -0.002
  0.000   0.000   0.000   0.002   4.449  -0.000  -0.002   6.777
  0.001  -0.000   0.001  -0.000   0.006   0.000  -0.000   0.002
  0.000  -0.000  -0.000   0.006  -0.000   0.000   0.001  -0.000
 -0.001   0.001  -0.003  -0.000  -0.000  -0.001  -0.000  -0.000
  0.001  -0.001  -0.000   0.000   0.000  -0.000   0.000   0.000
 -0.001   0.001  -0.005   0.000  -0.000  -0.001   0.000  -0.000
  0.001  -0.001   0.001  -0.000   0.009   0.001  -0.000   0.002
  0.000  -0.000  -0.000   0.009  -0.000   0.000   0.002  -0.000
 -0.001   0.001  -0.005  -0.000  -0.000  -0.001  -0.000  -0.000
  0.002  -0.002  -0.000   0.000   0.001  -0.000   0.000   0.000
 -0.002   0.001  -0.008   0.000  -0.001  -0.001   0.000  -0.000
 total augmentation occupancy for first ion, spin component:           1
  2.004  -0.004   0.001   0.000   0.000   0.003   0.000  -0.000   0.003   0.000  -0.008   0.004  -0.004  -0.002  -0.000   0.004
 -0.004   0.407   0.059   0.001   0.001  -0.015  -0.000  -0.001   0.063   0.030  -0.054  -0.063   0.050  -0.033  -0.016   0.027
  0.001   0.059   2.016   0.001  -0.001  -0.006  -0.000   0.000   0.051  -0.023  -0.046   0.024  -0.047  -0.024   0.011   0.019
  0.000   0.001   0.001   2.020  -0.002  -0.000  -0.009   0.002   0.020   0.070  -0.013  -0.007   0.036  -0.009  -0.026   0.006
  0.000   0.001  -0.001  -0.002   2.021   0.000   0.002  -0.010   0.096   0.019  -0.009   0.045  -0.054  -0.039  -0.008   0.004
  0.003  -0.015  -0.006  -0.000   0.000   0.010   0.000   0.000  -0.020   0.012   0.014  -0.018   0.019   0.011  -0.007  -0.007
  0.000  -0.000  -0.000  -0.009   0.002   0.000   0.010  -0.001  -0.017  -0.029   0.005   0.003  -0.017   0.009   0.014  -0.002
 -0.000  -0.001   0.000   0.002  -0.010   0.000  -0.001   0.011  -0.032  -0.016   0.006  -0.020   0.017   0.016   0.009  -0.003
  0.003   0.063   0.051   0.020   0.096  -0.020  -0.017  -0.032   2.878   0.080  -0.111  -0.110   0.166  -1.515  -0.041   0.056
  0.000   0.030  -0.023   0.070   0.019   0.012  -0.029  -0.016   0.080   2.718  -0.005   0.041  -0.192  -0.041  -1.438   0.003
 -0.008  -0.054  -0.046  -0.013  -0.009   0.014   0.005   0.006  -0.111  -0.005   1.713   0.027  -0.144   0.056   0.003  -0.896
  0.004  -0.063   0.024  -0.007   0.045  -0.018   0.003  -0.020  -0.110   0.041   0.027   2.845  -0.359   0.061  -0.026  -0.017
 -0.004   0.050  -0.047   0.036  -0.054   0.019  -0.017   0.017   0.166  -0.192  -0.144  -0.359   1.920  -0.091   0.105   0.075
 -0.002  -0.033  -0.024  -0.009  -0.039   0.011   0.009   0.016  -1.515  -0.041   0.056   0.061  -0.091   0.800   0.021  -0.029
 -0.000  -0.016   0.011  -0.026  -0.008  -0.007   0.014   0.009  -0.041  -1.438   0.003  -0.026   0.105   0.021   0.763  -0.002
  0.004   0.027   0.019   0.006   0.004  -0.007  -0.002  -0.003   0.056   0.003  -0.896  -0.017   0.075  -0.029  -0.002   0.470
  0.000   0.033  -0.011   0.004  -0.022   0.010  -0.002   0.011   0.061  -0.026  -0.017  -1.519   0.193  -0.034   0.016   0.010
  0.001  -0.029   0.016  -0.017   0.027  -0.010   0.009  -0.009  -0.091   0.105   0.075   0.193  -1.012   0.050  -0.058  -0.039
 total augmentation occupancy for first ion, spin component:           2
  0.000   0.000  -0.000   0.000   0.000  -0.000   0.000  -0.000  -0.000   0.000   0.000  -0.000   0.000   0.000  -0.000  -0.000
  0.000  -0.001  -0.000   0.000  -0.000   0.000  -0.000   0.000   0.000   0.000   0.000   0.000  -0.000  -0.000  -0.000  -0.000
 -0.000  -0.000  -0.000  -0.000   0.000   0.000   0.000  -0.000  -0.000   0.000   0.000   0.000   0.000   0.000  -0.000  -0.000
  0.000   0.000  -0.000  -0.000   0.000   0.000   0.000  -0.000   0.000  -0.000  -0.000  -0.000  -0.000  -0.000   0.000  -0.000
  0.000  -0.000   0.000   0.000  -0.000  -0.000  -0.000   0.000  -0.000   0.000   0.000   0.000   0.000   0.000  -0.000  -0.000
 -0.000   0.000   0.000   0.000  -0.000  -0.000  -0.000   0.000   0.000  -0.000  -0.000  -0.000  -0.000  -0.000   0.000   0.000
  0.000  -0.000   0.000   0.000  -0.000  -0.000  -0.000   0.000  -0.000   0.000   0.000   0.000   0.000   0.000  -0.000  -0.000
 -0.000   0.000  -0.000  -0.000   0.000   0.000   0.000  -0.000   0.000  -0.000  -0.000  -0.000  -0.000  -0.000   0.000   0.000
 -0.000   0.000  -0.000   0.000  -0.000   0.000  -0.000   0.000  -0.007   0.002   0.000   0.000   0.000   0.003  -0.001  -0.000
  0.000   0.000   0.000  -0.000   0.000  -0.000   0.000  -0.000   0.002  -0.006  -0.000  -0.000  -0.000  -0.001   0.003   0.000
  0.000   0.000   0.000  -0.000   0.000  -0.000   0.000  -0.000   0.000  -0.000  -0.002   0.001   0.000  -0.000   0.000   0.001
 -0.000   0.000   0.000  -0.000   0.000  -0.000   0.000  -0.000   0.000  -0.000   0.001  -0.006   0.002  -0.000   0.000  -0.001
  0.000  -0.000   0.000  -0.000   0.000  -0.000   0.000  -0.000   0.000  -0.000   0.000   0.002  -0.002  -0.000   0.000  -0.000
  0.000  -0.000   0.000  -0.000   0.000  -0.000   0.000  -0.000   0.003  -0.001  -0.000  -0.000  -0.000  -0.001   0.001   0.000
 -0.000  -0.000  -0.000   0.000  -0.000   0.000  -0.000   0.000  -0.001   0.003   0.000   0.000   0.000   0.001  -0.001  -0.000
 -0.000  -0.000  -0.000  -0.000  -0.000   0.000  -0.000   0.000  -0.000   0.000   0.001  -0.001  -0.000   0.000  -0.000  -0.000
  0.000  -0.000  -0.000   0.000  -0.000   0.000  -0.000   0.000  -0.000   0.000  -0.001   0.003  -0.001   0.000  -0.000   0.000
 -0.000   0.000  -0.000   0.000  -0.000   0.000  -0.000   0.000  -0.000   0.000  -0.000  -0.001   0.001   0.000  -0.000  -0.000


------------------------ aborting loop because EDIFF is reached ----------------------------------------


    CHARGE:  cpu time    0.7630: real time    0.7634
    FORLOC:  cpu time    0.0143: real time    0.0143
    FORNL :  cpu time    3.3005: real time    3.3010
    STRESS:  cpu time    9.9219: real time    9.9273
    FORCOR:  cpu time    0.0990: real time    0.0990
    FORHAR:  cpu time    0.0211: real time    0.0211
    MIXING:  cpu time    0.0044: real time    0.0044
    OFIELD:  cpu time    0.0001: real time    0.0001

  FORCE on cell =-STRESS in cart. coord.  units (eV):
  Direction    XX          YY          ZZ          XY          YZ          ZX
  --------------------------------------------------------------------------------------
  Alpha Z  1754.07392  1754.07392  1754.07392
  Ewald   -7006.72322 -7943.26370 -7842.65998     0.00000     0.00000    -0.00000
  Hartree  3461.55949  2726.07254  2868.69889    -0.00000    -0.00000    -0.00000
  E(xc)   -1568.08552 -1569.12657 -1569.58737    -0.00000     0.00000    -0.00000
  Local   -2111.68646  -431.82331  -670.02132     0.00000    -0.00000     0.00000
  n-local -1131.77361 -1136.90424 -1135.08095     0.12878     0.05990     0.10465
  augment   625.99096   621.60352   623.46833     0.00000     0.00000    -0.00000
  Kinetic  5976.69190  5979.41623  5971.16200    -0.77206    -0.49507    -0.61641
  Fock        0.00000     0.00000     0.00000     0.00000     0.00000     0.00000
  -------------------------------------------------------------------------------------
  Total       0.04744     0.04838     0.05352     0.00000     0.00000     0.00000
  in kB       0.13568     0.13838     0.15309     0.00000     0.00000     0.00000
  external pressure =        0.14 kB  Pullay stress =        0.00 kB


 VOLUME and BASIS-vectors are now :
 -----------------------------------------------------------------------------
  energy-cutoff  :      500.00
  volume of cell :      560.13
      direct lattice vectors                 reciprocal lattice vectors
     8.108250779  0.000000000  0.000000000     0.123331163  0.000000000  0.000000000
     0.000000000  8.214627366  0.000000000     0.000000000  0.121734067  0.000000000
     0.000000000  0.000000000  8.409553867     0.000000000  0.000000000  0.118912372

  length of vectors
     8.108250779  8.214627366  8.409553867     0.123331163  0.121734067  0.118912372


 FORCES acting on ions
    electron-ion (+dipol)            ewald-force                    non-local-force                 convergence-correction
 -----------------------------------------------------------------------------------------------
   -.550E+02 -.149E+03 0.263E+02   0.549E+02 0.147E+03 -.264E+02   0.284E-01 0.207E+01 0.269E-01   0.323E-03 0.651E-03 -.233E-04
   0.550E+02 0.149E+03 0.263E+02   -.549E+02 -.147E+03 -.264E+02   -.284E-01 -.207E+01 0.269E-01   -.323E-03 -.651E-03 -.233E-04
   0.550E+02 -.149E+03 0.263E+02   -.549E+02 0.147E+03 -.264E+02   -.284E-01 0.207E+01 0.269E-01   -.323E-03 0.651E-03 -.233E-04
   -.550E+02 0.149E+03 0.263E+02   0.549E+02 -.147E+03 -.264E+02   0.284E-01 -.207E+01 0.269E-01   0.323E-03 -.651E-03 -.233E-04
   -.726E+02 -.108E+03 -.353E+02   0.713E+02 0.105E+03 0.348E+02   0.135E+01 0.237E+01 0.501E+00   0.371E-03 0.304E-03 0.905E-04
   0.726E+02 0.108E+03 -.353E+02   -.713E+02 -.105E+03 0.348E+02   -.135E+01 -.237E+01 0.501E+00   -.371E-03 -.304E-03 0.905E-04
   0.726E+02 -.108E+03 -.353E+02   -.713E+02 0.105E+03 0.348E+02   -.135E+01 0.237E+01 0.501E+00   -.371E-03 0.304E-03 0.905E-04
   -.726E+02 0.108E+03 -.353E+02   0.713E+02 -.105E+03 0.348E+02   0.135E+01 -.237E+01 0.501E+00   0.371E-03 -.304E-03 0.905E-04
   0.232E-11 0.278E-11 0.117E+03   0.000E+00 -.209E-13 -.114E+03   0.000E+00 0.000E+00 -.231E+01   0.342E-14 -.567E-13 -.588E-04
   0.644E-11 -.531E-11 0.304E+02   0.000E+00 -.269E-16 -.276E+02   0.000E+00 0.000E+00 -.277E+01   0.512E-13 0.510E-13 0.304E-03
   0.103E-11 0.333E-11 0.140E+03   0.693E-13 -.784E-13 -.136E+03   0.000E+00 0.000E+00 -.419E+01   -.941E-13 -.992E-13 -.942E-03
   0.110E-11 0.338E-11 -.415E+02   -.171E-12 0.399E-14 0.430E+02   0.000E+00 0.000E+00 -.148E+01   0.155E-14 -.152E-12 0.892E-03
   0.967E-12 -.302E-11 -.179E+02   -.604E-13 0.183E-14 0.192E+02   0.000E+00 0.000E+00 -.129E+01   -.106E-12 0.192E-13 0.918E-04
   0.186E-11 0.469E-12 -.533E+02   -.117E-12 0.561E-13 0.498E+02   0.000E+00 0.000E+00 0.350E+01   0.368E-13 -.134E-12 -.454E-03
   0.171E-11 0.209E-11 -.751E+02   -.888E-13 0.116E-12 0.707E+02   0.000E+00 0.000E+00 0.437E+01   0.107E-14 0.585E-13 0.244E-03
   0.164E-11 -.705E-11 -.304E+02   -.568E-13 -.284E-13 0.284E+02   0.000E+00 0.000E+00 0.206E+01   0.384E-13 -.902E-13 0.101E-03
   0.696E-12 0.226E-11 -.356E+02   -.444E-13 -.106E-14 0.389E+02   0.000E+00 0.000E+00 -.328E+01   0.399E-14 -.458E-13 0.657E-04
   0.568E-12 -.202E-11 0.623E+01   0.959E-13 0.160E-13 -.112E+02   0.000E+00 0.000E+00 0.498E+01   -.320E-13 0.544E-13 0.737E-03
   0.109E-11 0.164E-11 0.107E+03   -.240E-13 -.336E-13 -.116E+03   0.000E+00 0.000E+00 0.930E+01   0.365E-14 -.251E-13 0.306E-03
   0.611E-12 -.858E-12 -.897E+02   -.355E-14 -.228E-13 0.100E+03   0.000E+00 0.000E+00 -.105E+02   0.260E-13 -.332E-13 -.605E-03
   0.109E-11 0.588E-12 0.781E+02   -.195E-13 -.132E-13 -.876E+02   0.000E+00 0.000E+00 0.947E+01   0.130E-13 -.113E-13 0.156E-03
   0.101E-11 -.439E-11 -.128E+02   0.213E-13 -.356E-13 0.194E+02   0.000E+00 0.000E+00 -.662E+01   0.323E-13 -.231E-13 -.698E-03
   0.106E-11 -.533E-11 0.107E+02   -.426E-13 -.285E-13 -.208E+02   0.000E+00 0.000E+00 0.100E+02   0.769E-14 -.290E-13 0.713E-03
   0.719E-12 -.115E+02 0.389E+02   -.115E-13 0.701E+01 -.396E+02   0.000E+00 0.447E+01 0.743E+00   -.390E-13 0.638E-03 -.279E-03
   0.720E-12 0.115E+02 0.389E+02   -.311E-13 -.701E+01 -.396E+02   0.000E+00 -.447E+01 0.743E+00   -.341E-13 -.638E-03 -.279E-03
   0.566E+01 -.256E-12 0.575E+02   -.177E+01 -.240E-13 -.590E+02   -.389E+01 0.136E-19 0.148E+01   -.377E-03 -.578E-13 -.416E-03
   -.566E+01 -.450E-13 0.575E+02   0.177E+01 -.254E-13 -.590E+02   0.389E+01 -.271E-19 0.148E+01   0.377E-03 -.460E-13 -.416E-03
   0.668E-12 0.377E+02 -.930E+02   -.142E-13 -.538E+02 0.995E+02   0.000E+00 0.161E+02 -.654E+01   -.373E-13 0.116E-02 0.324E-03
   0.702E-12 -.377E+02 -.930E+02   -.178E-13 0.538E+02 0.995E+02   0.000E+00 -.161E+02 -.654E+01   -.428E-13 -.116E-02 0.324E-03
   0.303E+02 0.330E-11 -.325E+02   -.303E+02 -.847E-14 0.331E+02   0.835E-02 0.000E+00 -.651E+00   -.294E-03 -.497E-14 0.292E-03
   -.303E+02 -.216E-11 -.325E+02   0.303E+02 -.881E-14 0.331E+02   -.835E-02 -.108E-18 -.651E+00   0.294E-03 -.595E-14 0.292E-03
   0.115E-11 -.105E+02 -.122E+02   0.453E-13 0.619E+00 0.150E+02   -.173E-17 0.989E+01 -.280E+01   0.517E-13 0.103E-02 -.330E-03
   0.109E-11 0.105E+02 -.122E+02   0.764E-13 -.619E+00 0.150E+02   0.173E-17 -.989E+01 -.280E+01   0.576E-13 -.103E-02 -.330E-03
   0.211E+02 -.370E-12 0.100E+02   -.140E+02 0.152E-13 -.894E+01   -.713E+01 0.173E-17 -.110E+01   -.918E-03 -.658E-14 -.206E-03
   -.211E+02 0.381E-12 0.100E+02   0.140E+02 0.223E-13 -.894E+01   0.713E+01 -.173E-17 -.110E+01   0.918E-03 -.698E-14 -.206E-03
   0.115E-11 -.166E+02 -.263E+02   -.355E-13 0.142E+02 0.268E+02   0.000E+00 0.233E+01 -.456E+00   -.333E-14 0.419E-03 0.177E-03
   0.115E-11 0.166E+02 -.263E+02   -.142E-13 -.142E+02 0.268E+02   0.000E+00 -.233E+01 -.456E+00   0.140E-13 -.419E-03 0.177E-03
   0.228E+02 0.316E-11 0.102E+02   -.282E+02 -.716E-14 -.117E+02   0.539E+01 -.434E-18 0.154E+01   0.726E-03 -.508E-13 0.185E-03
   -.228E+02 -.224E-11 0.102E+02   0.282E+02 -.460E-16 -.117E+02   -.539E+01 0.434E-18 0.154E+01   -.726E-03 -.400E-13 0.185E-03
 -----------------------------------------------------------------------------------------------
   0.342E-10 -.169E-10 0.207E+01   -.711E-13 -.139E-12 -.533E-14   0.000E+00 0.000E+00 -.212E+01   -.225E-13 -.499E-12 0.618E-03
 
 
 POSITION                                       TOTAL-FORCE (eV/Angst)
 -----------------------------------------------------------------------------------
      8.02251      8.02837      0.14725        -0.000704      0.000020      0.000677
      4.13987      4.29357      0.14725         0.000704     -0.000020      0.000677
      4.13987      8.02837      0.14725         0.000704      0.000020      0.000677
      8.02251      4.29357      0.14725        -0.000704     -0.000020      0.000677
      8.02632      8.01816      4.26308         0.000165     -0.000644     -0.000093
      4.13606      4.30378      4.26308        -0.000165      0.000644     -0.000093
      4.13606      8.01816      4.26308        -0.000165     -0.000644     -0.000093
      8.02632      4.30378      4.26308         0.000165      0.000644     -0.000093
      2.02706      6.16097      6.50026        -0.000000      0.000000      0.004969
      6.08119      6.16097      2.30605        -0.000000      0.000000      0.002821
      2.02706      2.05366      2.42210        -0.000000      0.000000      0.000836
      2.02706      2.05366      6.24696        -0.000000      0.000000     -0.000230
      2.02706      6.16097      2.30645        -0.000000      0.000000     -0.000367
      6.08119      2.05366      2.06729        -0.000000      0.000000      0.000272
      6.08119      2.05366      6.17713        -0.000000      0.000000     -0.002506
      6.08119      6.16097      6.31085        -0.000000      0.000000      0.000115
      2.02706      2.05366      4.29923        -0.000000      0.000000     -0.000403
      2.02706      6.16097      0.24288        -0.000000      0.000000     -0.002964
      6.08119      2.05366      0.11983        -0.000000      0.000000      0.000259
      2.02706      6.16097      4.23208        -0.000000      0.000000     -0.003203
      6.08119      2.05366      4.28819        -0.000000      0.000000     -0.001074
      6.08119      6.16097      8.40127        -0.000000      0.000000     -0.001271
      6.08119      6.16097      4.41481        -0.000000      0.000000      0.001489
      2.02706      0.10663      2.16125        -0.000000     -0.000158     -0.000453
      2.02706      4.00068      2.16125        -0.000000      0.000158     -0.000453
      3.95087      2.05366      1.97898         0.000812      0.000000      0.001054
      0.10326      2.05366      1.97898        -0.000812      0.000000      0.001054
      2.02706      0.37767      7.04711        -0.000000     -0.002304      0.002244
      2.02706      3.72964      7.04711        -0.000000      0.002304      0.002244
      4.05752      2.05366      6.31782         0.000416     -0.000000     -0.003249
      8.10486      2.05366      6.31782        -0.000416      0.000000     -0.003249
      6.08119      0.13225      2.21734        -0.000000     -0.001078      0.001043
      6.08119      3.97506      2.21734        -0.000000      0.001078      0.001043
      3.98838      6.16097      2.18662         0.000071      0.000000     -0.000985
      0.06575      6.16097      2.18662        -0.000071     -0.000000     -0.000985
      6.08119      0.06634      6.42010        -0.000000      0.000334      0.000324
      6.08119      4.04098      6.42010        -0.000000     -0.000334      0.000324
      4.09370      6.16097      6.46135        -0.003225      0.000000     -0.000516
      8.06867      6.16097      6.46135         0.003225      0.000000     -0.000516
 -----------------------------------------------------------------------------------
    total drift:                                0.000000     -0.000000     -0.044858


--------------------------------------------------------------------------------------------------------



  FREE ENERGIE OF THE ION-ELECTRON SYSTEM (eV)
  ---------------------------------------------------
  free  energy   TOTEN  =      -278.84639587 eV

  energy  without entropy=     -278.84983380  energy(sigma->0) =     -278.84754185
 


--------------------------------------------------------------------------------------------------------


    POTLOK:  cpu time    0.1042: real time    0.1042


--------------------------------------------------------------------------------------------------------


 Quasi-Newton relaxation of ions (Broydens 2nd method)
  g(Force)  = 0.695E-05   g(Stress)= 0.922E-05

 Reset! Starting new Quasi-Newton update for ions 


--------------------------------------------------------------------------------------------------------


  
 reached required accuracy - stopping structural energy minimisation
     LOOP+:  cpu time  458.2635: real time  458.4968
    4ORBIT:  cpu time    0.0000: real time    0.0000

 total amount of memory used by VASP MPI-rank0    96642. kBytes
=======================================================================

   base      :      30000. kBytes
   nonlr-proj:       5256. kBytes
   fftplans  :       2435. kBytes
   grid      :       7088. kBytes
   one-center:         93. kBytes
   wavefun   :      51770. kBytes
 
  
  
 General timing and accounting informations for this job:
 ========================================================
  
                  Total CPU time used (sec):      463.305
                            User time (sec):      462.521
                          System time (sec):        0.784
                         Elapsed time (sec):      463.686
  
                   Maximum memory used (kb):      123944.
                   Average memory used (kb):           0.
  
                          Minor page faults:        13538
                          Major page faults:            0
                 Voluntary context switches:          478
