<?xml version="1.0" encoding="ISO-8859-1"?>
<modeling>
 <generator>
  <i name="program" type="string">vasp </i>
  <i name="version" type="string">5.4.4.18Apr17-6-g9f103f2a35  </i>
  <i name="subversion" type="string">(build Nov 08 2017 09:05:29) complex            parallel </i>
  <i name="platform" type="string">Intel_17.33 </i>
  <i name="date" type="string">2019 01 29 </i>
  <i name="time" type="string">21:00:47 </i>
 </generator>
 <incar>
  <i type="string" name="SYSTEM">Bi1Cu1O1Se1_ICSD_189174</i>
  <i type="string" name="PREC">high</i>
  <i type="string" name="ALGO">NORMAL</i>
  <i type="int" name="ISPIN">     2</i>
  <i type="int" name="NELM">   120</i>
  <i type="int" name="NELMIN">     2</i>
  <i type="int" name="IBRION">     1</i>
  <i name="EDIFF">      0.00000100</i>
  <i name="EDIFFG">     -0.00500000</i>
  <i type="int" name="NSW">    75</i>
  <i type="int" name="ISIF">     3</i>
  <i type="int" name="ISYM">     2</i>
  <i name="ENCUT">    500.00000000</i>
  <i type="string" name="LREAL"> AUTO</i>
  <i type="logical" name="LPLANE"> T  </i>
  <i type="int" name="ISMEAR">     1</i>
  <i name="SIGMA">      0.10000000</i>
  <i type="int" name="LMAXMIX">     4</i>
  <i type="logical" name="LWAVE"> F  </i>
  <i type="logical" name="LCHARG"> F  </i>
  <i type="logical" name="LSCALU"> F  </i>
  <v type="int" name="KPOINT_BSE">    -1     0     0     0</v>
  <i type="int" name="NELM">   120</i>
  <i type="logical" name="LDAU"> T  </i>
  <v type="int" name="LDAUTYPE">     2</v>
  <v type="int" name="LDAUL">     0     0     2     2     0</v>
  <v name="LDAUU">      0.00000000      0.00000000      5.10000000      2.10000000      0.00000000</v>
  <v name="LDAUJ">      0.00000000      0.00000000      0.00000000      0.00000000      0.00000000</v>
  <i type="int" name="LDAUPRINT">     0</i>
 </incar>
 <structure name="primitive_cell" >
  <crystal>
   <varray name="basis" >
    <v>       8.10825078       0.00000000       0.00000000 </v>
    <v>       0.00000000       8.21462737       0.00000000 </v>
    <v>       0.00000000       0.00000000       8.40955387 </v>
   </varray>
   <i name="volume">    560.12892075 </i>
   <varray name="rec_basis" >
    <v>       0.12333116       0.00000000       0.00000000 </v>
    <v>       0.00000000       0.12173407       0.00000000 </v>
    <v>       0.00000000       0.00000000       0.11891237 </v>
   </varray>
  </crystal>
  <varray name="positions" >
   <v>      -0.01057500      -0.02267416       0.01751042 </v>
   <v>       0.25000000       0.04597518      -0.16201098 </v>
   <v>      -0.25000000      -0.25000000      -0.00098505 </v>
   <v>       0.00810858      -0.25000000       0.26001628 </v>
   <v>      -0.00488127      -0.25000000      -0.23166507 </v>
   <v>       0.25000000      -0.25000000       0.02888150 </v>
   <v>      -0.25000000       0.01609974       0.26366922 </v>
   <v>      -0.25000000       0.00807536      -0.23657112 </v>
   <v>       0.01273473       0.25000000       0.23532543 </v>
   <v>       0.25000000       0.01298045       0.25699972 </v>
   <v>      -0.25000000       0.25000000       0.01424966 </v>
   <v>      -0.00041844       0.25000000      -0.24873310 </v>
   <v>      -0.25000000      -0.25000000       0.27421847 </v>
   <v>       0.25000000      -0.25000000      -0.22703874 </v>
   <v>      -0.25000000      -0.25000000      -0.24956167 </v>
   <v>      -0.25000000       0.25000000       0.24582578 </v>
   <v>       0.25000000      -0.25000000       0.27426600 </v>
   <v>      -0.01057500      -0.47732584       0.01751042 </v>
   <v>      -0.25000000       0.25000000      -0.26546267 </v>
   <v>       0.25000000       0.25000000       0.28801743 </v>
   <v>       0.25000000       0.25000000      -0.25715889 </v>
   <v>      -0.48942500      -0.02267416       0.01751042 </v>
   <v>      -0.01010462      -0.02391620      -0.49306740 </v>
   <v>       0.25000000       0.45402482      -0.16201098 </v>
   <v>      -0.49511873      -0.25000000      -0.23166507 </v>
   <v>       0.49189142      -0.25000000       0.26001628 </v>
   <v>      -0.25000000       0.49192464      -0.23657112 </v>
   <v>      -0.25000000      -0.25000000      -0.47502455 </v>
   <v>      -0.25000000       0.48390026       0.26366922 </v>
   <v>       0.25000000      -0.25000000      -0.49675376 </v>
   <v>       0.48726527       0.25000000       0.23532543 </v>
   <v>       0.25000000       0.48701955       0.25699972 </v>
   <v>      -0.49958156       0.25000000      -0.24873310 </v>
   <v>      -0.25000000       0.25000000      -0.49008063 </v>
   <v>       0.25000000       0.25000000      -0.48876875 </v>
   <v>      -0.48942500      -0.47732584       0.01751042 </v>
   <v>      -0.01010462      -0.47608380      -0.49306740 </v>
   <v>      -0.48989538      -0.02391620      -0.49306740 </v>
   <v>      -0.48989538      -0.47608380      -0.49306740 </v>
  </varray>
 </structure>
 <varray name="primitive_index" >
  <v type="int" >        1 </v>
  <v type="int" >       28 </v>
  <v type="int" >       22 </v>
  <v type="int" >       35 </v>
  <v type="int" >       39 </v>
  <v type="int" >       18 </v>
  <v type="int" >       32 </v>
  <v type="int" >       36 </v>
  <v type="int" >       27 </v>
  <v type="int" >       24 </v>
  <v type="int" >       19 </v>
  <v type="int" >       31 </v>
  <v type="int" >       10 </v>
  <v type="int" >        9 </v>
  <v type="int" >       16 </v>
  <v type="int" >       14 </v>
  <v type="int" >       13 </v>
  <v type="int" >        4 </v>
  <v type="int" >       15 </v>
  <v type="int" >       11 </v>
  <v type="int" >       12 </v>
  <v type="int" >        3 </v>
  <v type="int" >        5 </v>
  <v type="int" >       29 </v>
  <v type="int" >       38 </v>
  <v type="int" >       34 </v>
  <v type="int" >       37 </v>
  <v type="int" >       23 </v>
  <v type="int" >       33 </v>
  <v type="int" >       20 </v>
  <v type="int" >       26 </v>
  <v type="int" >       25 </v>
  <v type="int" >       30 </v>
  <v type="int" >       21 </v>
  <v type="int" >       17 </v>
  <v type="int" >        2 </v>
  <v type="int" >        8 </v>
  <v type="int" >        7 </v>
  <v type="int" >        6 </v>
 </varray>
 <kpoints>
  <generation param="Monkhorst-Pack">
   <v type="int" name="divisions">       4        4        4 </v>
   <v name="usershift">      0.00000000       0.00000000       0.00000000 </v>
   <v name="genvec1">      0.25000000       0.00000000       0.00000000 </v>
   <v name="genvec2">      0.00000000       0.25000000       0.00000000 </v>
   <v name="genvec3">      0.00000000       0.00000000       0.25000000 </v>
   <v name="shift">      0.50000000       0.50000000       0.50000000 </v>
  </generation>
  <varray name="kpointlist" >
   <v>       0.12500000       0.12500000       0.12500000 </v>
   <v>       0.37500000       0.12500000       0.12500000 </v>
   <v>       0.12500000       0.37500000       0.12500000 </v>
   <v>       0.37500000       0.37500000       0.12500000 </v>
   <v>       0.12500000       0.12500000       0.37500000 </v>
   <v>       0.37500000       0.12500000       0.37500000 </v>
   <v>       0.12500000       0.37500000       0.37500000 </v>
   <v>       0.37500000       0.37500000       0.37500000 </v>
  </varray>
  <varray name="weights" >
   <v>       0.12500000 </v>
   <v>       0.12500000 </v>
   <v>       0.12500000 </v>
   <v>       0.12500000 </v>
   <v>       0.12500000 </v>
   <v>       0.12500000 </v>
   <v>       0.12500000 </v>
   <v>       0.12500000 </v>
  </varray>
 </kpoints>
 <parameters>
  <separator name="general" >
   <i type="string" name="SYSTEM">Bi1Cu1O1Se1_ICSD_189174</i>
   <i type="logical" name="LCOMPAT"> F  </i>
  </separator>
  <separator name="electronic" >
   <i type="string" name="PREC">high</i>
   <i name="ENMAX">    500.00000000</i>
   <i name="ENAUG">    703.44300000</i>
   <i name="EDIFF">      0.00000100</i>
   <i type="int" name="IALGO">    38</i>
   <i type="int" name="IWAVPR">    11</i>
   <i type="int" name="NBANDS">   214</i>
   <i name="NELECT">    324.00000000</i>
   <i type="int" name="TURBO">     0</i>
   <i type="int" name="IRESTART">     0</i>
   <i type="int" name="NREBOOT">     0</i>
   <i type="int" name="NMIN">     0</i>
   <i name="EREF">      0.00000000</i>
   <separator name="electronic smearing" >
    <i type="int" name="ISMEAR">     1</i>
    <i name="SIGMA">      0.10000000</i>
    <i name="KSPACING">      0.50000000</i>
    <i type="logical" name="KGAMMA"> T  </i>
   </separator>
   <separator name="electronic projectors" >
    <i type="logical" name="LREAL"> T  </i>
    <v name="ROPT">     -0.00040000     -0.00040000     -0.00040000     -0.00040000     -0.00040000</v>
    <i type="int" name="LMAXPAW">  -100</i>
    <i type="int" name="LMAXMIX">     4</i>
    <i type="logical" name="NLSPLINE"> F  </i>
   </separator>
   <separator name="electronic startup" >
    <i type="int" name="ISTART">     0</i>
    <i type="int" name="ICHARG">     2</i>
    <i type="int" name="INIWAV">     1</i>
   </separator>
   <separator name="electronic spin" >
    <i type="int" name="ISPIN">     2</i>
    <i type="logical" name="LNONCOLLINEAR"> F  </i>
    <v name="MAGMOM">      1.00000000      1.00000000      1.00000000      1.00000000      1.00000000      1.00000000      1.00000000      1.00000000      1.00000000      1.00000000      1.00000000      1.00000000      1.00000000      1.00000000      1.00000000      1.00000000      1.00000000      1.00000000      1.00000000      1.00000000
      1.00000000      1.00000000      1.00000000      1.00000000      1.00000000      1.00000000      1.00000000      1.00000000      1.00000000      1.00000000      1.00000000      1.00000000      1.00000000      1.00000000      1.00000000      1.00000000      1.00000000      1.00000000      1.00000000</v>
    <i name="NUPDOWN">     -1.00000000</i>
    <i type="logical" name="LSORBIT"> F  </i>
    <v name="SAXIS">      0.00000000      0.00000000      1.00000000</v>
    <i type="logical" name="LSPIRAL"> F  </i>
    <v name="QSPIRAL">      0.00000000      0.00000000      0.00000000</v>
    <i type="logical" name="LZEROZ"> F  </i>
   </separator>
   <separator name="electronic exchange-correlation" >
    <i type="logical" name="LASPH"> F  </i>
    <i type="logical" name="LMETAGGA"> F  </i>
   </separator>
   <separator name="electronic convergence" >
    <i type="int" name="NELM">   120</i>
    <i type="int" name="NELMDL">    -5</i>
    <i type="int" name="NELMIN">     2</i>
    <i name="ENINI">    500.00000000</i>
    <separator name="electronic convergence detail" >
     <i type="logical" name="LDIAG"> T  </i>
     <i type="logical" name="LSUBROT"> F  </i>
     <i name="WEIMIN">      0.00100000</i>
     <i name="EBREAK">      0.00000000</i>
     <i name="DEPER">      0.30000000</i>
     <i type="int" name="NRMM">     4</i>
     <i name="TIME">      0.40000000</i>
    </separator>
   </separator>
   <separator name="electronic mixer" >
    <i name="AMIX">      0.40000000</i>
    <i name="BMIX">      1.00000000</i>
    <i name="AMIN">      0.10000000</i>
    <i name="AMIX_MAG">      1.60000000</i>
    <i name="BMIX_MAG">      1.00000000</i>
    <separator name="electronic mixer details" >
     <i type="int" name="IMIX">     4</i>
     <i type="logical" name="MIXFIRST"> F  </i>
     <i type="int" name="MAXMIX">   -45</i>
     <i name="WC">    100.00000000</i>
     <i type="int" name="INIMIX">     1</i>
     <i type="int" name="MIXPRE">     1</i>
     <i type="int" name="MREMOVE">     5</i>
    </separator>
   </separator>
   <separator name="electronic dipolcorrection" >
    <i type="logical" name="LDIPOL"> F  </i>
    <i type="logical" name="LMONO"> F  </i>
    <i type="int" name="IDIPOL">     0</i>
    <i name="EPSILON">      1.00000000</i>
    <v name="DIPOL">   -100.00000000   -100.00000000   -100.00000000</v>
    <i name="EFIELD">      0.00000000</i>
   </separator>
  </separator>
  <separator name="grids" >
   <i type="int" name="NGX">    60</i>
   <i type="int" name="NGY">    60</i>
   <i type="int" name="NGZ">    64</i>
   <i type="int" name="NGXF">    96</i>
   <i type="int" name="NGYF">    96</i>
   <i type="int" name="NGZF">    96</i>
   <i type="logical" name="ADDGRID"> F  </i>
  </separator>
  <separator name="ionic" >
   <i type="int" name="NSW">    75</i>
   <i type="int" name="IBRION">     1</i>
   <i type="int" name="MDALGO">     0</i>
   <i type="int" name="ISIF">     3</i>
   <i name="PSTRESS">      0.00000000</i>
   <i name="EDIFFG">     -0.00500000</i>
   <i type="int" name="NFREE">     0</i>
   <i name="POTIM">      0.50000000</i>
   <i name="SMASS">     -3.00000000</i>
   <i name="SCALEE">      1.00000000</i>
  </separator>
  <separator name="ionic md" >
   <i name="TEBEG">      0.00010000</i>
   <i name="TEEND">      0.00010000</i>
   <i type="int" name="NBLOCK">     1</i>
   <i type="int" name="KBLOCK">    75</i>
   <i type="int" name="NPACO">   256</i>
   <i name="APACO">     16.00000000</i>
  </separator>
  <separator name="symmetry" >
   <i type="int" name="ISYM">     2</i>
   <i name="SYMPREC">      0.00001000</i>
  </separator>
  <separator name="dos" >
   <i type="int" name="LORBIT">     0</i>
   <v name="RWIGS">     -1.00000000     -1.00000000     -1.00000000     -1.00000000     -1.00000000</v>
   <i type="int" name="NEDOS">   301</i>
   <i name="EMIN">     10.00000000</i>
   <i name="EMAX">    -10.00000000</i>
   <i name="EFERMI">      0.00000000</i>
  </separator>
  <separator name="writing" >
   <i type="int" name="NWRITE">     2</i>
   <i type="logical" name="LWAVE"> F  </i>
   <i type="logical" name="LDOWNSAMPLE"> F  </i>
   <i type="logical" name="LCHARG"> F  </i>
   <i type="logical" name="LPARD"> F  </i>
   <i type="logical" name="LVTOT"> F  </i>
   <i type="logical" name="LVHAR"> F  </i>
   <i type="logical" name="LELF"> F  </i>
   <i type="logical" name="LOPTICS"> F  </i>
   <v name="STM">      0.00000000      0.00000000      0.00000000      0.00000000      0.00000000      0.00000000      0.00000000</v>
  </separator>
  <separator name="performance" >
   <i type="int" name="NPAR">     1</i>
   <i type="int" name="NSIM">     4</i>
   <i type="int" name="NBLK">    -1</i>
   <i type="logical" name="LPLANE"> T  </i>
   <i type="logical" name="LSCALAPACK"> T  </i>
   <i type="logical" name="LSCAAWARE"> F  </i>
   <i type="logical" name="LSCALU"> F  </i>
   <i type="logical" name="LASYNC"> F  </i>
   <i type="logical" name="LORBITALREAL"> F  </i>
  </separator>
  <separator name="miscellaneous" >
   <i type="int" name="IDIOT">     3</i>
   <i type="int" name="ISPECIAL">     0</i>
   <i type="logical" name="LMUSIC"> F  </i>
   <v name="POMASS">    137.32700000     39.09800000     58.69000000     92.91000000     16.00000000</v>
   <v name="DARWINR">      0.00000000      0.00000000      0.00000000      0.00000000      0.00000000</v>
   <v name="DARWINV">      1.00000000      1.00000000      1.00000000      1.00000000      1.00000000</v>
   <i type="logical" name="LCORR"> T  </i>
  </separator>
  <i type="logical" name="GGA_COMPAT"> T  </i>
  <i type="logical" name="LBERRY"> F  </i>
  <i type="int" name="ICORELEVEL">     0</i>
  <i type="logical" name="LDAU"> T  </i>
  <v type="int" name="LDAUTYPE">     2</v>
  <v type="int" name="LDAUL">     0</v>
  <v name="LDAUU">      0.00000000</v>
  <v name="LDAUJ">      0.00000000</v>
  <i type="int" name="LDAUPRINT">     0</i>
  <i type="int" name="I_CONSTRAINED_M">     0</i>
  <separator name="electronic exchange-correlation" >
   <i type="string" name="GGA">--</i>
   <i type="int" name="VOSKOWN">     0</i>
   <i type="logical" name="LHFCALC"> F  </i>
   <i type="string" name="PRECFOCK"></i>
   <i type="logical" name="LSYMGRAD"> F  </i>
   <i type="logical" name="LHFONE"> F  </i>
   <i type="logical" name="LRHFCALC"> F  </i>
   <i type="logical" name="LTHOMAS"> F  </i>
   <i type="logical" name="LMODELHF"> F  </i>
   <i name="ENCUT4O">     -1.00000000</i>
   <i type="int" name="EXXOEP">     0</i>
   <i type="int" name="FOURORBIT">     0</i>
   <i name="AEXX">      0.00000000</i>
   <i name="HFALPHA">      0.00000000</i>
   <i name="MCALPHA">      0.00000000</i>
   <i name="ALDAX">      1.00000000</i>
   <i name="AGGAX">      1.00000000</i>
   <i name="ALDAC">      1.00000000</i>
   <i name="AGGAC">      1.00000000</i>
   <i type="int" name="NKREDX">     1</i>
   <i type="int" name="NKREDY">     1</i>
   <i type="int" name="NKREDZ">     1</i>
   <i type="logical" name="SHIFTRED"> F  </i>
   <i type="logical" name="ODDONLY"> F  </i>
   <i type="logical" name="EVENONLY"> F  </i>
   <i type="int" name="LMAXFOCK">     0</i>
   <i type="int" name="NMAXFOCKAE">     0</i>
   <i type="logical" name="LFOCKAEDFT"> F  </i>
   <i name="HFSCREEN">      0.00000000</i>
   <i name="HFSCREENC">      0.00000000</i>
   <i type="int" name="NBANDSGWLOW">     0</i>
  </separator>
  <separator name="vdW DFT" >
   <i type="logical" name="LUSE_VDW"> F  </i>
   <i name="Zab_VDW">     -0.84910000</i>
   <i name="PARAM1">      0.12340000</i>
   <i name="PARAM2">      1.00000000</i>
   <i name="PARAM3">      0.00000000</i>
  </separator>
  <separator name="model GW" >
   <i type="int" name="MODEL_GW">     0</i>
   <i name="MODEL_EPS0">      8.61736801</i>
   <i name="MODEL_ALPHA">      1.00000000</i>
  </separator>
  <separator name="linear response parameters" >
   <i type="logical" name="LEPSILON"> F  </i>
   <i type="logical" name="LRPA"> F  </i>
   <i type="logical" name="LNABLA"> F  </i>
   <i type="logical" name="LVEL"> F  </i>
   <i type="int" name="KINTER">     0</i>
   <i name="CSHIFT">      0.10000000</i>
   <i name="OMEGAMAX">     -1.00000000</i>
   <i name="DEG_THRESHOLD">      0.00200000</i>
   <i name="RTIME">     -0.10000000</i>
   <i name="WPLASMAI">      0.00000000</i>
   <v name="DFIELD">      0.00000000      0.00000000      0.00000000</v>
   <v name="WPLASMA">      0.00000000      0.00000000      0.00000000      0.00000000      0.00000000      0.00000000      0.00000000      0.00000000      0.00000000</v>
  </separator>
  <separator name="orbital magnetization" >
   <i type="logical" name="NUCIND"> F  </i>
   <v name="MAGPOS">      0.00000000      0.00000000      0.00000000</v>
   <i type="logical" name="LNICSALL"> T  </i>
   <i type="logical" name="ORBITALMAG"> F  </i>
   <i type="logical" name="LMAGBLOCH"> F  </i>
   <i type="logical" name="LCHIMAG"> F  </i>
   <i type="logical" name="LGAUGE"> T  </i>
   <i type="int" name="MAGATOM">     0</i>
   <v name="MAGDIPOL">      0.00000000      0.00000000      0.00000000</v>
   <v name="AVECCONST">      0.00000000      0.00000000      0.00000000</v>
  </separator>
  <separator name="response functions" >
   <i type="logical" name="LADDER"> F  </i>
   <i type="logical" name="LRPAFORCE"> F  </i>
   <i type="logical" name="LFXC"> F  </i>
   <i type="logical" name="LHARTREE"> T  </i>
   <i type="int" name="IBSE">     0</i>
   <v type="int" name="KPOINT">    -1     0     0     0</v>
   <i type="logical" name="LTCTE"> F  </i>
   <i type="logical" name="LTETE"> F  </i>
   <i type="logical" name="LTRIPLET"> F  </i>
   <i type="logical" name="LFXCEPS"> F  </i>
   <i type="logical" name="LFXHEG"> F  </i>
   <i type="int" name="NATURALO">     2</i>
   <i type="logical" name="L2ORDER"> F  </i>
   <i type="logical" name="LMP2LT"> F  </i>
   <i type="logical" name="LUSEW"> F  </i>
   <i name="ENCUTGW">     -2.00000000</i>
   <i name="ENCUTGWSOFT">     -2.00000000</i>
   <i name="ENCUTLF">     -1.00000000</i>
   <i type="int" name="LMAXMP2">    -1</i>
   <i name="SCISSOR">      0.00000000</i>
   <i type="int" name="NOMEGA">     0</i>
   <i type="int" name="NOMEGAR">     0</i>
   <i type="int" name="NBANDSGW">    -1</i>
   <i type="int" name="NBANDSO">    -1</i>
   <i type="int" name="NBANDSV">    -1</i>
   <i type="int" name="NELM">   120</i>
   <i type="int" name="NELMHF">     1</i>
   <i type="int" name="DIM">     3</i>
   <i type="int" name="ANTIRES">     0</i>
   <i name="OMEGAMAX">    -30.00000000</i>
   <i name="OMEGAMIN">    -30.00000000</i>
   <i name="OMEGATL">   -200.00000000</i>
   <i type="int" name="OMEGAGRID">   140</i>
   <i name="CSHIFT">     -0.10000000</i>
   <i type="logical" name="SELFENERGY"> F  </i>
   <i type="logical" name="LSPECTRAL"> F  </i>
   <i type="logical" name="LSPECTRALGW"> F  </i>
   <i type="logical" name="LSINGLES"> F  </i>
   <i type="logical" name="LFERMIGW"> F  </i>
   <i type="logical" name="ODDONLYGW"> F  </i>
   <i type="logical" name="EVENONLYGW"> F  </i>
   <i type="int" name="NKREDLFX">     1</i>
   <i type="int" name="NKREDLFY">     1</i>
   <i type="int" name="NKREDLFZ">     1</i>
   <i type="int" name="MAXMEM">  2800</i>
   <i type="int" name="TELESCOPE">     0</i>
   <i type="int" name="TAUPAR">     1</i>
   <i type="int" name="OMEGAPAR">    -1</i>
   <i name="LAMBDA">      1.00000000</i>
  </separator>
  <separator name="External order field" >
   <i name="OFIELD_KAPPA">      0.00000000</i>
   <v name="OFIELD_K">      0.00000000      0.00000000      0.00000000</v>
   <i name="OFIELD_Q6_NEAR">      0.00000000</i>
   <i name="OFIELD_Q6_FAR">      0.00000000</i>
   <i name="OFIELD_A">      0.00000000</i>
  </separator>
 </parameters>
 <atominfo>
  <atoms>      39 </atoms>
  <types>       5 </types>
  <array name="atoms" >
   <dimension dim="1">ion</dimension>
   <field type="string">element</field>
   <field type="int">atomtype</field>
   <set>
    <rc><c>Ba</c><c>   1</c></rc>
    <rc><c>Ba</c><c>   1</c></rc>
    <rc><c>Ba</c><c>   1</c></rc>
    <rc><c>Ba</c><c>   1</c></rc>
    <rc><c>K </c><c>   2</c></rc>
    <rc><c>K </c><c>   2</c></rc>
    <rc><c>K </c><c>   2</c></rc>
    <rc><c>K </c><c>   2</c></rc>
    <rc><c>Ni</c><c>   3</c></rc>
    <rc><c>Ni</c><c>   3</c></rc>
    <rc><c>Nb</c><c>   4</c></rc>
    <rc><c>Nb</c><c>   4</c></rc>
    <rc><c>Nb</c><c>   4</c></rc>
    <rc><c>Nb</c><c>   4</c></rc>
    <rc><c>Nb</c><c>   4</c></rc>
    <rc><c>Nb</c><c>   4</c></rc>
    <rc><c>O </c><c>   5</c></rc>
    <rc><c>O </c><c>   5</c></rc>
    <rc><c>O </c><c>   5</c></rc>
    <rc><c>O </c><c>   5</c></rc>
    <rc><c>O </c><c>   5</c></rc>
    <rc><c>O </c><c>   5</c></rc>
    <rc><c>O </c><c>   5</c></rc>
    <rc><c>O </c><c>   5</c></rc>
    <rc><c>O </c><c>   5</c></rc>
    <rc><c>O </c><c>   5</c></rc>
    <rc><c>O </c><c>   5</c></rc>
    <rc><c>O </c><c>   5</c></rc>
    <rc><c>O </c><c>   5</c></rc>
    <rc><c>O </c><c>   5</c></rc>
    <rc><c>O </c><c>   5</c></rc>
    <rc><c>O </c><c>   5</c></rc>
    <rc><c>O </c><c>   5</c></rc>
    <rc><c>O </c><c>   5</c></rc>
    <rc><c>O </c><c>   5</c></rc>
    <rc><c>O </c><c>   5</c></rc>
    <rc><c>O </c><c>   5</c></rc>
    <rc><c>O </c><c>   5</c></rc>
    <rc><c>O </c><c>   5</c></rc>
   </set>
  </array>
  <array name="atomtypes" >
   <dimension dim="1">type</dimension>
   <field type="int">atomspertype</field>
   <field type="string">element</field>
   <field>mass</field>
   <field>valence</field>
   <field type="string">pseudopotential</field>
   <set>
    <rc><c>   4</c><c>Ba</c><c>    137.32700000</c><c>     10.00000000</c><c>  PAW_PBE Ba_sv 06Sep2000               </c></rc>
    <rc><c>   4</c><c>K </c><c>     39.09800000</c><c>      9.00000000</c><c>  PAW_PBE K_sv 06Sep2000                </c></rc>
    <rc><c>   2</c><c>Ni</c><c>     58.69000000</c><c>     16.00000000</c><c>  PAW_PBE Ni_pv 06Sep2000               </c></rc>
    <rc><c>   6</c><c>Nb</c><c>     92.91000000</c><c>     13.00000000</c><c>  PAW_PBE Nb_sv 25May2007               </c></rc>
    <rc><c>  23</c><c>O </c><c>     16.00000000</c><c>      6.00000000</c><c>  PAW_PBE O 08Apr2002                   </c></rc>
   </set>
  </array>
 </atominfo>
 <structure name="initialpos" >
  <crystal>
   <varray name="basis" >
    <v>       8.10825078       0.00000000       0.00000000 </v>
    <v>       0.00000000       8.21462737       0.00000000 </v>
    <v>       0.00000000       0.00000000       8.40955387 </v>
   </varray>
   <i name="volume">    560.12892075 </i>
   <varray name="rec_basis" >
    <v>       0.12333116       0.00000000       0.00000000 </v>
    <v>       0.00000000       0.12173407       0.00000000 </v>
    <v>       0.00000000       0.00000000       0.11891237 </v>
   </varray>
  </crystal>
  <varray name="positions" >
   <v>       0.98942500       0.97732584       0.01751042 </v>
   <v>       0.51057500       0.52267416       0.01751042 </v>
   <v>       0.51057500       0.97732584       0.01751042 </v>
   <v>       0.98942500       0.52267416       0.01751042 </v>
   <v>       0.98989538       0.97608380       0.50693260 </v>
   <v>       0.51010462       0.52391620       0.50693260 </v>
   <v>       0.51010462       0.97608380       0.50693260 </v>
   <v>       0.98989538       0.52391620       0.50693260 </v>
   <v>       0.25000000       0.75000000       0.77296126 </v>
   <v>       0.75000000       0.75000000       0.27421847 </v>
   <v>       0.25000000       0.25000000       0.28801743 </v>
   <v>       0.25000000       0.25000000       0.74284111 </v>
   <v>       0.25000000       0.75000000       0.27426600 </v>
   <v>       0.75000000       0.25000000       0.24582578 </v>
   <v>       0.75000000       0.25000000       0.73453733 </v>
   <v>       0.75000000       0.75000000       0.75043833 </v>
   <v>       0.25000000       0.25000000       0.51123125 </v>
   <v>       0.25000000       0.75000000       0.02888150 </v>
   <v>       0.75000000       0.25000000       0.01424966 </v>
   <v>       0.25000000       0.75000000       0.50324624 </v>
   <v>       0.75000000       0.25000000       0.50991937 </v>
   <v>       0.75000000       0.75000000       0.99901495 </v>
   <v>       0.75000000       0.75000000       0.52497545 </v>
   <v>       0.25000000       0.01298045       0.25699972 </v>
   <v>       0.25000000       0.48701955       0.25699972 </v>
   <v>       0.48726527       0.25000000       0.23532543 </v>
   <v>       0.01273473       0.25000000       0.23532543 </v>
   <v>       0.25000000       0.04597518       0.83798902 </v>
   <v>       0.25000000       0.45402482       0.83798902 </v>
   <v>       0.50041844       0.25000000       0.75126690 </v>
   <v>       0.99958156       0.25000000       0.75126690 </v>
   <v>       0.75000000       0.01609974       0.26366922 </v>
   <v>       0.75000000       0.48390026       0.26366922 </v>
   <v>       0.49189142       0.75000000       0.26001628 </v>
   <v>       0.00810858       0.75000000       0.26001628 </v>
   <v>       0.75000000       0.00807536       0.76342888 </v>
   <v>       0.75000000       0.49192464       0.76342888 </v>
   <v>       0.50488127       0.75000000       0.76833493 </v>
   <v>       0.99511873       0.75000000       0.76833493 </v>
  </varray>
 </structure>
 <calculation>
  <scstep>
   <time name="dav">   17.42   17.44</time>
   <time name="total">   17.54   17.56</time>
   <energy>
    <i name="alphaZ">   1754.07391684 </i>
    <i name="ewald"> -22792.54568904 </i>
    <i name="hartreedc">  -9000.05206978 </i>
    <i name="XCdc">   1404.02305550 </i>
    <i name="pawpsdc">  25642.25965449 </i>
    <i name="pawaedc"> -25778.45180652 </i>
    <i name="eentropy">     -0.00213523 </i>
    <i name="bandstr">    -24.77975558 </i>
    <i name="atom">  32180.85449221 </i>
    <i name="e_fr_energy">   3385.37966289 </i>
    <i name="e_wo_entrp">   3385.38179812 </i>
    <i name="e_0_energy">   3385.38037463 </i>
   </energy>
  </scstep>
  <scstep>
   <time name="dav">   19.60   19.62</time>
   <time name="total">   19.61   19.63</time>
   <energy>
    <i name="e_fr_energy">     59.78240979 </i>
    <i name="e_wo_entrp">     59.78177275 </i>
    <i name="e_0_energy">     59.78219745 </i>
   </energy>
  </scstep>
  <scstep>
   <time name="dav">   23.46   23.48</time>
   <time name="total">   23.47   23.48</time>
   <energy>
    <i name="e_fr_energy">   -312.86208416 </i>
    <i name="e_wo_entrp">   -312.87199794 </i>
    <i name="e_0_energy">   -312.86538875 </i>
   </energy>
  </scstep>
  <scstep>
   <time name="dav">   24.64   24.66</time>
   <time name="total">   24.65   24.67</time>
   <energy>
    <i name="e_fr_energy">   -332.32478692 </i>
    <i name="e_wo_entrp">   -332.33196921 </i>
    <i name="e_0_energy">   -332.32718102 </i>
   </energy>
  </scstep>
  <scstep>
   <time name="dav">   27.02   27.04</time>
   <time name="total">   27.83   27.85</time>
   <energy>
    <i name="e_fr_energy">   -333.53846145 </i>
    <i name="e_wo_entrp">   -333.54554993 </i>
    <i name="e_0_energy">   -333.54082428 </i>
   </energy>
  </scstep>
  <scstep>
   <time name="dav">   22.06   22.06</time>
   <time name="total">   22.92   22.92</time>
   <energy>
    <i name="e_fr_energy">   -273.73015480 </i>
    <i name="e_wo_entrp">   -273.73249470 </i>
    <i name="e_0_energy">   -273.73093477 </i>
   </energy>
  </scstep>
  <scstep>
   <time name="dav">   23.82   23.83</time>
   <time name="total">   24.67   24.69</time>
   <energy>
    <i name="e_fr_energy">   -277.48981259 </i>
    <i name="e_wo_entrp">   -277.49304858 </i>
    <i name="e_0_energy">   -277.49089125 </i>
   </energy>
  </scstep>
  <scstep>
   <time name="dav">   23.01   23.02</time>
   <time name="total">   23.87   23.87</time>
   <energy>
    <i name="e_fr_energy">   -278.49216891 </i>
    <i name="e_wo_entrp">   -278.49640299 </i>
    <i name="e_0_energy">   -278.49358027 </i>
   </energy>
  </scstep>
  <scstep>
   <time name="dav">   24.19   24.20</time>
   <time name="total">   25.05   25.06</time>
   <energy>
    <i name="e_fr_energy">   -278.78168381 </i>
    <i name="e_wo_entrp">   -278.78512501 </i>
    <i name="e_0_energy">   -278.78283088 </i>
   </energy>
  </scstep>
  <scstep>
   <time name="dav">   22.42   22.43</time>
   <time name="total">   23.29   23.30</time>
   <energy>
    <i name="e_fr_energy">   -278.82383002 </i>
    <i name="e_wo_entrp">   -278.82724213 </i>
    <i name="e_0_energy">   -278.82496739 </i>
   </energy>
  </scstep>
  <scstep>
   <time name="dav">   21.82   21.83</time>
   <time name="total">   22.69   22.70</time>
   <energy>
    <i name="e_fr_energy">   -278.83962078 </i>
    <i name="e_wo_entrp">   -278.84308151 </i>
    <i name="e_0_energy">   -278.84077436 </i>
   </energy>
  </scstep>
  <scstep>
   <time name="dav">   24.39   24.40</time>
   <time name="total">   25.27   25.28</time>
   <energy>
    <i name="e_fr_energy">   -278.84455069 </i>
    <i name="e_wo_entrp">   -278.84800901 </i>
    <i name="e_0_energy">   -278.84570346 </i>
   </energy>
  </scstep>
  <scstep>
   <time name="dav">   21.43   21.44</time>
   <time name="total">   22.30   22.31</time>
   <energy>
    <i name="e_fr_energy">   -278.84579750 </i>
    <i name="e_wo_entrp">   -278.84925212 </i>
    <i name="e_0_energy">   -278.84694904 </i>
   </energy>
  </scstep>
  <scstep>
   <time name="dav">   21.68   21.69</time>
   <time name="total">   22.57   22.57</time>
   <energy>
    <i name="e_fr_energy">   -278.84619980 </i>
    <i name="e_wo_entrp">   -278.84964305 </i>
    <i name="e_0_energy">   -278.84734755 </i>
   </energy>
  </scstep>
  <scstep>
   <time name="dav">   21.14   21.15</time>
   <time name="total">   22.03   22.04</time>
   <energy>
    <i name="e_fr_energy">   -278.84634483 </i>
    <i name="e_wo_entrp">   -278.84978207 </i>
    <i name="e_0_energy">   -278.84749058 </i>
   </energy>
  </scstep>
  <scstep>
   <time name="dav">   21.79   21.79</time>
   <time name="total">   22.66   22.66</time>
   <energy>
    <i name="e_fr_energy">   -278.84638051 </i>
    <i name="e_wo_entrp">   -278.84981963 </i>
    <i name="e_0_energy">   -278.84752689 </i>
   </energy>
  </scstep>
  <scstep>
   <time name="dav">   21.08   21.09</time>
   <time name="total">   21.96   21.97</time>
   <energy>
    <i name="e_fr_energy">   -278.84639128 </i>
    <i name="e_wo_entrp">   -278.84983084 </i>
    <i name="e_0_energy">   -278.84753780 </i>
   </energy>
  </scstep>
  <scstep>
   <time name="dav">   18.76   18.76</time>
   <time name="total">   19.63   19.64</time>
   <energy>
    <i name="e_fr_energy">   -278.84639474 </i>
    <i name="e_wo_entrp">   -278.84983295 </i>
    <i name="e_0_energy">   -278.84754081 </i>
   </energy>
  </scstep>
  <scstep>
   <time name="dav">   16.70   16.70</time>
   <time name="total">   17.57   17.57</time>
   <energy>
    <i name="e_fr_energy">   -278.84639580 </i>
    <i name="e_wo_entrp">   -278.84983355 </i>
    <i name="e_0_energy">   -278.84754172 </i>
   </energy>
  </scstep>
  <scstep>
   <time name="dav">   14.31   14.32</time>
   <time name="total">   14.43   14.43</time>
   <energy>
    <i name="alphaZ">   1754.07391684 </i>
    <i name="ewald"> -22792.54568904 </i>
    <i name="hartreedc">  -9056.33280094 </i>
    <i name="XCdc">   1414.64780662 </i>
    <i name="pawpsdc">  30748.07524561 </i>
    <i name="pawaedc"> -30888.65798962 </i>
    <i name="eentropy">      0.00343794 </i>
    <i name="bandstr">  -3638.96481549 </i>
    <i name="atom">  32180.85449221 </i>
    <i name="e_fr_energy">   -278.84639587 </i>
    <i name="e_wo_entrp">   -278.84983380 </i>
    <i name="e_0_energy">   -278.84754185 </i>
   </energy>
  </scstep>
  <structure>
   <crystal>
    <varray name="basis" >
     <v>       8.10825078       0.00000000       0.00000000 </v>
     <v>       0.00000000       8.21462737       0.00000000 </v>
     <v>       0.00000000       0.00000000       8.40955387 </v>
    </varray>
    <i name="volume">    560.12892075 </i>
    <varray name="rec_basis" >
     <v>       0.12333116       0.00000000       0.00000000 </v>
     <v>       0.00000000       0.12173407       0.00000000 </v>
     <v>       0.00000000       0.00000000       0.11891237 </v>
    </varray>
   </crystal>
   <varray name="positions" >
    <v>       0.98942500       0.97732584       0.01751042 </v>
    <v>       0.51057500       0.52267416       0.01751042 </v>
    <v>       0.51057500       0.97732584       0.01751042 </v>
    <v>       0.98942500       0.52267416       0.01751042 </v>
    <v>       0.98989538       0.97608380       0.50693260 </v>
    <v>       0.51010462       0.52391620       0.50693260 </v>
    <v>       0.51010462       0.97608380       0.50693260 </v>
    <v>       0.98989538       0.52391620       0.50693260 </v>
    <v>       0.25000000       0.75000000       0.77296126 </v>
    <v>       0.75000000       0.75000000       0.27421847 </v>
    <v>       0.25000000       0.25000000       0.28801743 </v>
    <v>       0.25000000       0.25000000       0.74284111 </v>
    <v>       0.25000000       0.75000000       0.27426600 </v>
    <v>       0.75000000       0.25000000       0.24582578 </v>
    <v>       0.75000000       0.25000000       0.73453733 </v>
    <v>       0.75000000       0.75000000       0.75043833 </v>
    <v>       0.25000000       0.25000000       0.51123125 </v>
    <v>       0.25000000       0.75000000       0.02888150 </v>
    <v>       0.75000000       0.25000000       0.01424966 </v>
    <v>       0.25000000       0.75000000       0.50324624 </v>
    <v>       0.75000000       0.25000000       0.50991937 </v>
    <v>       0.75000000       0.75000000       0.99901495 </v>
    <v>       0.75000000       0.75000000       0.52497545 </v>
    <v>       0.25000000       0.01298045       0.25699972 </v>
    <v>       0.25000000       0.48701955       0.25699972 </v>
    <v>       0.48726527       0.25000000       0.23532543 </v>
    <v>       0.01273473       0.25000000       0.23532543 </v>
    <v>       0.25000000       0.04597518       0.83798902 </v>
    <v>       0.25000000       0.45402482       0.83798902 </v>
    <v>       0.50041844       0.25000000       0.75126690 </v>
    <v>       0.99958156       0.25000000       0.75126690 </v>
    <v>       0.75000000       0.01609974       0.26366922 </v>
    <v>       0.75000000       0.48390026       0.26366922 </v>
    <v>       0.49189142       0.75000000       0.26001628 </v>
    <v>       0.00810858       0.75000000       0.26001628 </v>
    <v>       0.75000000       0.00807536       0.76342888 </v>
    <v>       0.75000000       0.49192464       0.76342888 </v>
    <v>       0.50488127       0.75000000       0.76833493 </v>
    <v>       0.99511873       0.75000000       0.76833493 </v>
   </varray>
  </structure>
  <varray name="forces" >
   <v>      -0.00070395       0.00002026       0.00067738 </v>
   <v>       0.00070395      -0.00002026       0.00067738 </v>
   <v>       0.00070395       0.00002026       0.00067738 </v>
   <v>      -0.00070395      -0.00002026       0.00067738 </v>
   <v>       0.00016453      -0.00064412      -0.00009326 </v>
   <v>      -0.00016453       0.00064412      -0.00009326 </v>
   <v>      -0.00016453      -0.00064412      -0.00009326 </v>
   <v>       0.00016453       0.00064412      -0.00009326 </v>
   <v>      -0.00000000       0.00000000       0.00496862 </v>
   <v>      -0.00000000       0.00000000       0.00282104 </v>
   <v>      -0.00000000       0.00000000       0.00083589 </v>
   <v>      -0.00000000       0.00000000      -0.00023000 </v>
   <v>      -0.00000000       0.00000000      -0.00036680 </v>
   <v>      -0.00000000       0.00000000       0.00027198 </v>
   <v>      -0.00000000       0.00000000      -0.00250583 </v>
   <v>      -0.00000000       0.00000000       0.00011535 </v>
   <v>      -0.00000000       0.00000000      -0.00040307 </v>
   <v>      -0.00000000       0.00000000      -0.00296435 </v>
   <v>      -0.00000000       0.00000000       0.00025892 </v>
   <v>      -0.00000000       0.00000000      -0.00320327 </v>
   <v>      -0.00000000       0.00000000      -0.00107430 </v>
   <v>      -0.00000000       0.00000000      -0.00127127 </v>
   <v>      -0.00000000       0.00000000       0.00148920 </v>
   <v>      -0.00000000      -0.00015835      -0.00045340 </v>
   <v>      -0.00000000       0.00015835      -0.00045340 </v>
   <v>       0.00081153       0.00000000       0.00105363 </v>
   <v>      -0.00081153       0.00000000       0.00105363 </v>
   <v>      -0.00000000      -0.00230406       0.00224383 </v>
   <v>      -0.00000000       0.00230406       0.00224383 </v>
   <v>       0.00041577      -0.00000000      -0.00324886 </v>
   <v>      -0.00041577       0.00000000      -0.00324886 </v>
   <v>      -0.00000000      -0.00107810       0.00104303 </v>
   <v>      -0.00000000       0.00107810       0.00104303 </v>
   <v>       0.00007067       0.00000000      -0.00098519 </v>
   <v>      -0.00007067      -0.00000000      -0.00098519 </v>
   <v>      -0.00000000       0.00033431       0.00032403 </v>
   <v>      -0.00000000      -0.00033431       0.00032403 </v>
   <v>      -0.00322516       0.00000000      -0.00051636 </v>
   <v>       0.00322516       0.00000000      -0.00051636 </v>
  </varray>
  <varray name="stress" >
   <v>       0.13568363       0.00000000       0.00000000 </v>
   <v>       0.00000000       0.13837913       0.00000000 </v>
   <v>       0.00000000       0.00000000       0.15308972 </v>
  </varray>
  <energy>
   <i name="e_fr_energy">   -278.84639587 </i>
   <i name="e_wo_entrp">   -278.84754185 </i>
   <i name="e_0_energy">      0.00343794 </i>
  </energy>
  <time name="totalsc">  458.26  458.50</time>
  <eigenvalues>
   <array>
    <dimension dim="1">band</dimension>
    <dimension dim="2">kpoint</dimension>
    <dimension dim="3">spin</dimension>
    <field>eigene</field>
    <field>occ</field>
    <set>
     <set comment="spin 1">
      <set comment="kpoint 1">
       <r>  -61.6193    1.0000 </r>
       <r>  -61.2887    1.0000 </r>
       <r>  -61.2242    1.0000 </r>
       <r>  -60.8014    1.0000 </r>
       <r>  -60.7873    1.0000 </r>
       <r>  -60.7041    1.0000 </r>
       <r>  -52.9819    1.0000 </r>
       <r>  -52.6596    1.0000 </r>
       <r>  -52.5487    1.0000 </r>
       <r>  -52.5019    1.0000 </r>
       <r>  -51.9771    1.0000 </r>
       <r>  -51.9651    1.0000 </r>
       <r>  -29.3682    1.0000 </r>
       <r>  -29.0479    1.0000 </r>
       <r>  -29.0108    1.0000 </r>
       <r>  -28.8747    1.0000 </r>
       <r>  -28.8089    1.0000 </r>
       <r>  -28.7907    1.0000 </r>
       <r>  -28.7406    1.0000 </r>
       <r>  -28.6762    1.0000 </r>
       <r>  -28.6185    1.0000 </r>
       <r>  -28.6004    1.0000 </r>
       <r>  -28.5959    1.0000 </r>
       <r>  -28.5339    1.0000 </r>
       <r>  -28.0840    1.0000 </r>
       <r>  -28.0834    1.0000 </r>
       <r>  -28.0767    1.0000 </r>
       <r>  -28.0449    1.0000 </r>
       <r>  -28.0438    1.0000 </r>
       <r>  -28.0346    1.0000 </r>
       <r>  -24.7563    1.0000 </r>
       <r>  -24.7417    1.0000 </r>
       <r>  -24.7380    1.0000 </r>
       <r>  -24.7269    1.0000 </r>
       <r>  -21.8821    1.0000 </r>
       <r>  -21.7989    1.0000 </r>
       <r>  -21.7901    1.0000 </r>
       <r>  -21.7253    1.0000 </r>
       <r>  -15.1436    1.0000 </r>
       <r>  -14.3752    1.0000 </r>
       <r>  -14.1881    1.0000 </r>
       <r>  -14.0903    1.0000 </r>
       <r>  -13.9616    1.0000 </r>
       <r>  -13.8245    1.0000 </r>
       <r>  -13.7731    1.0000 </r>
       <r>  -13.5393    1.0000 </r>
       <r>  -13.4971    1.0000 </r>
       <r>  -13.3940    1.0000 </r>
       <r>  -13.3085    1.0000 </r>
       <r>  -13.3039    1.0000 </r>
       <r>  -13.2463    1.0000 </r>
       <r>  -13.1909    1.0000 </r>
       <r>  -13.1324    1.0000 </r>
       <r>  -13.0497    1.0000 </r>
       <r>  -13.0257    1.0000 </r>
       <r>  -12.8224    1.0000 </r>
       <r>  -12.5730    1.0000 </r>
       <r>  -12.5184    1.0000 </r>
       <r>  -12.5020    1.0000 </r>
       <r>  -12.4564    1.0000 </r>
       <r>  -12.3181    1.0000 </r>
       <r>   -8.4293    1.0000 </r>
       <r>   -8.4185    1.0000 </r>
       <r>   -8.3388    1.0000 </r>
       <r>   -8.2870    1.0000 </r>
       <r>   -8.2752    1.0000 </r>
       <r>   -8.2633    1.0000 </r>
       <r>   -8.2560    1.0000 </r>
       <r>   -8.2482    1.0000 </r>
       <r>   -8.2418    1.0000 </r>
       <r>   -8.2273    1.0000 </r>
       <r>   -8.2157    1.0000 </r>
       <r>   -8.1836    1.0000 </r>
       <r>   -7.4465    1.0000 </r>
       <r>   -7.3798    1.0000 </r>
       <r>   -7.1847    1.0000 </r>
       <r>   -7.1086    1.0000 </r>
       <r>   -7.0266    1.0000 </r>
       <r>   -7.0142    1.0000 </r>
       <r>   -6.9790    1.0000 </r>
       <r>   -6.9689    1.0000 </r>
       <r>   -6.9420    1.0000 </r>
       <r>   -6.8816    1.0000 </r>
       <r>   -6.8606    1.0000 </r>
       <r>   -6.8389    1.0000 </r>
       <r>   -2.6666    1.0000 </r>
       <r>   -2.4782    1.0000 </r>
       <r>   -2.2859    1.0000 </r>
       <r>   -2.2191    1.0000 </r>
       <r>   -2.1549    1.0000 </r>
       <r>   -2.1305    1.0000 </r>
       <r>   -2.0728    1.0000 </r>
       <r>   -1.8471    1.0000 </r>
       <r>   -1.8065    1.0000 </r>
       <r>   -1.6787    1.0000 </r>
       <r>   -1.6482    1.0000 </r>
       <r>   -1.6173    1.0000 </r>
       <r>   -1.5116    1.0000 </r>
       <r>   -1.3425    1.0000 </r>
       <r>   -1.2009    1.0000 </r>
       <r>   -1.1513    1.0000 </r>
       <r>   -0.9733    1.0000 </r>
       <r>   -0.9353    1.0000 </r>
       <r>   -0.7817    1.0000 </r>
       <r>   -0.7394    1.0000 </r>
       <r>   -0.6339    1.0000 </r>
       <r>   -0.4610    1.0000 </r>
       <r>   -0.4487    1.0000 </r>
       <r>   -0.4145    1.0000 </r>
       <r>   -0.3634    1.0000 </r>
       <r>   -0.2662    1.0000 </r>
       <r>   -0.2245    1.0000 </r>
       <r>    0.0460    1.0000 </r>
       <r>    0.0765    1.0000 </r>
       <r>    0.1393    1.0000 </r>
       <r>    0.2111    1.0000 </r>
       <r>    0.2640    1.0000 </r>
       <r>    0.2947    1.0000 </r>
       <r>    0.3249    1.0000 </r>
       <r>    0.3794    1.0000 </r>
       <r>    0.4120    1.0000 </r>
       <r>    0.5136    1.0000 </r>
       <r>    0.5328    1.0000 </r>
       <r>    0.5455    1.0000 </r>
       <r>    0.6408    1.0000 </r>
       <r>    0.6646    1.0000 </r>
       <r>    0.8371    1.0000 </r>
       <r>    0.8697    1.0000 </r>
       <r>    0.9121    1.0000 </r>
       <r>    0.9933    1.0000 </r>
       <r>    1.0442    1.0000 </r>
       <r>    1.0843    1.0000 </r>
       <r>    1.1683    1.0000 </r>
       <r>    1.2390    1.0000 </r>
       <r>    1.2703    1.0000 </r>
       <r>    1.3360    1.0000 </r>
       <r>    1.3617    1.0000 </r>
       <r>    1.4482    1.0000 </r>
       <r>    1.5020    1.0000 </r>
       <r>    1.5922    1.0000 </r>
       <r>    1.6159    1.0000 </r>
       <r>    1.6590    1.0000 </r>
       <r>    1.7139    1.0000 </r>
       <r>    1.7832    1.0000 </r>
       <r>    1.8581    1.0000 </r>
       <r>    1.8991    1.0000 </r>
       <r>    1.9206    1.0000 </r>
       <r>    1.9638    1.0000 </r>
       <r>    2.0122    1.0000 </r>
       <r>    2.1192    1.0000 </r>
       <r>    2.1663    1.0000 </r>
       <r>    2.2244    1.0000 </r>
       <r>    2.2547    1.0000 </r>
       <r>    2.2808    1.0000 </r>
       <r>    2.3957    1.0000 </r>
       <r>    2.4617    1.0000 </r>
       <r>    2.5515    1.0000 </r>
       <r>    2.6764    1.0000 </r>
       <r>    2.7168    1.0000 </r>
       <r>    2.7302    1.0000 </r>
       <r>    2.7475    1.0000 </r>
       <r>    2.8296    1.0000 </r>
       <r>    2.8927    1.0000 </r>
       <r>    3.3077    1.0339 </r>
       <r>    5.0753   -0.0000 </r>
       <r>    5.8626   -0.0000 </r>
       <r>    5.9039   -0.0000 </r>
       <r>    5.9640   -0.0000 </r>
       <r>    6.0142   -0.0000 </r>
       <r>    6.2201    0.0000 </r>
       <r>    6.3723    0.0000 </r>
       <r>    6.7016    0.0000 </r>
       <r>    7.1234    0.0000 </r>
       <r>    7.1641    0.0000 </r>
       <r>    7.2250    0.0000 </r>
       <r>    7.3083    0.0000 </r>
       <r>    7.3517    0.0000 </r>
       <r>    7.4741    0.0000 </r>
       <r>    7.5822    0.0000 </r>
       <r>    7.5971    0.0000 </r>
       <r>    7.7240    0.0000 </r>
       <r>    7.8742    0.0000 </r>
       <r>    7.9649    0.0000 </r>
       <r>    8.0485    0.0000 </r>
       <r>    8.1724    0.0000 </r>
       <r>    8.3474    0.0000 </r>
       <r>    8.4674    0.0000 </r>
       <r>    8.6585    0.0000 </r>
       <r>    8.7688    0.0000 </r>
       <r>    9.0599    0.0000 </r>
       <r>    9.2704    0.0000 </r>
       <r>    9.4415    0.0000 </r>
       <r>    9.6058    0.0000 </r>
       <r>    9.7910    0.0000 </r>
       <r>    9.9935    0.0000 </r>
       <r>   10.1035    0.0000 </r>
       <r>   10.2441    0.0000 </r>
       <r>   10.3963    0.0000 </r>
       <r>   10.5363    0.0000 </r>
       <r>   10.6272    0.0000 </r>
       <r>   10.6973    0.0000 </r>
       <r>   10.8563    0.0000 </r>
       <r>   11.0391    0.0000 </r>
       <r>   11.1358    0.0000 </r>
       <r>   11.1926    0.0000 </r>
       <r>   11.2825    0.0000 </r>
       <r>   11.4378    0.0000 </r>
       <r>   11.4666    0.0000 </r>
       <r>   11.5221    0.0000 </r>
       <r>   11.6419    0.0000 </r>
       <r>   11.7094    0.0000 </r>
       <r>   11.8396    0.0000 </r>
       <r>   11.9556    0.0000 </r>
       <r>   12.0146    0.0000 </r>
      </set>
      <set comment="kpoint 2">
       <r>  -61.6193    1.0000 </r>
       <r>  -61.2887    1.0000 </r>
       <r>  -61.2243    1.0000 </r>
       <r>  -60.8015    1.0000 </r>
       <r>  -60.7874    1.0000 </r>
       <r>  -60.7041    1.0000 </r>
       <r>  -52.9819    1.0000 </r>
       <r>  -52.6596    1.0000 </r>
       <r>  -52.5487    1.0000 </r>
       <r>  -52.5019    1.0000 </r>
       <r>  -51.9771    1.0000 </r>
       <r>  -51.9651    1.0000 </r>
       <r>  -29.3682    1.0000 </r>
       <r>  -29.0442    1.0000 </r>
       <r>  -29.0108    1.0000 </r>
       <r>  -28.8746    1.0000 </r>
       <r>  -28.8090    1.0000 </r>
       <r>  -28.7907    1.0000 </r>
       <r>  -28.7246    1.0000 </r>
       <r>  -28.6762    1.0000 </r>
       <r>  -28.6186    1.0000 </r>
       <r>  -28.6127    1.0000 </r>
       <r>  -28.6045    1.0000 </r>
       <r>  -28.5339    1.0000 </r>
       <r>  -28.0840    1.0000 </r>
       <r>  -28.0834    1.0000 </r>
       <r>  -28.0768    1.0000 </r>
       <r>  -28.0446    1.0000 </r>
       <r>  -28.0441    1.0000 </r>
       <r>  -28.0346    1.0000 </r>
       <r>  -24.7531    1.0000 </r>
       <r>  -24.7449    1.0000 </r>
       <r>  -24.7358    1.0000 </r>
       <r>  -24.7291    1.0000 </r>
       <r>  -21.8618    1.0000 </r>
       <r>  -21.8198    1.0000 </r>
       <r>  -21.7741    1.0000 </r>
       <r>  -21.7416    1.0000 </r>
       <r>  -15.1410    1.0000 </r>
       <r>  -14.2412    1.0000 </r>
       <r>  -14.0926    1.0000 </r>
       <r>  -14.0128    1.0000 </r>
       <r>  -13.9461    1.0000 </r>
       <r>  -13.8462    1.0000 </r>
       <r>  -13.7283    1.0000 </r>
       <r>  -13.6821    1.0000 </r>
       <r>  -13.4867    1.0000 </r>
       <r>  -13.4255    1.0000 </r>
       <r>  -13.3837    1.0000 </r>
       <r>  -13.3041    1.0000 </r>
       <r>  -13.2809    1.0000 </r>
       <r>  -13.2205    1.0000 </r>
       <r>  -13.1595    1.0000 </r>
       <r>  -13.0359    1.0000 </r>
       <r>  -13.0068    1.0000 </r>
       <r>  -12.8896    1.0000 </r>
       <r>  -12.6110    1.0000 </r>
       <r>  -12.5392    1.0000 </r>
       <r>  -12.5276    1.0000 </r>
       <r>  -12.4462    1.0000 </r>
       <r>  -12.3138    1.0000 </r>
       <r>   -8.4056    1.0000 </r>
       <r>   -8.3836    1.0000 </r>
       <r>   -8.3257    1.0000 </r>
       <r>   -8.3117    1.0000 </r>
       <r>   -8.2910    1.0000 </r>
       <r>   -8.2767    1.0000 </r>
       <r>   -8.2648    1.0000 </r>
       <r>   -8.2616    1.0000 </r>
       <r>   -8.2368    1.0000 </r>
       <r>   -8.2168    1.0000 </r>
       <r>   -8.2093    1.0000 </r>
       <r>   -8.1942    1.0000 </r>
       <r>   -7.4059    1.0000 </r>
       <r>   -7.3400    1.0000 </r>
       <r>   -7.2318    1.0000 </r>
       <r>   -7.1440    1.0000 </r>
       <r>   -7.0741    1.0000 </r>
       <r>   -7.0197    1.0000 </r>
       <r>   -6.9914    1.0000 </r>
       <r>   -6.9423    1.0000 </r>
       <r>   -6.9321    1.0000 </r>
       <r>   -6.9105    1.0000 </r>
       <r>   -6.8561    1.0000 </r>
       <r>   -6.8272    1.0000 </r>
       <r>   -2.6559    1.0000 </r>
       <r>   -2.2888    1.0000 </r>
       <r>   -2.2461    1.0000 </r>
       <r>   -2.1132    1.0000 </r>
       <r>   -1.9831    1.0000 </r>
       <r>   -1.9356    1.0000 </r>
       <r>   -1.8380    1.0000 </r>
       <r>   -1.7551    1.0000 </r>
       <r>   -1.7113    1.0000 </r>
       <r>   -1.6162    1.0000 </r>
       <r>   -1.4381    1.0000 </r>
       <r>   -1.3627    1.0000 </r>
       <r>   -1.2737    1.0000 </r>
       <r>   -1.1555    1.0000 </r>
       <r>   -1.0986    1.0000 </r>
       <r>   -1.0200    1.0000 </r>
       <r>   -0.9579    1.0000 </r>
       <r>   -0.9055    1.0000 </r>
       <r>   -0.8684    1.0000 </r>
       <r>   -0.7907    1.0000 </r>
       <r>   -0.6680    1.0000 </r>
       <r>   -0.6019    1.0000 </r>
       <r>   -0.5603    1.0000 </r>
       <r>   -0.4980    1.0000 </r>
       <r>   -0.4092    1.0000 </r>
       <r>   -0.3735    1.0000 </r>
       <r>   -0.3392    1.0000 </r>
       <r>   -0.2791    1.0000 </r>
       <r>   -0.2046    1.0000 </r>
       <r>   -0.1522    1.0000 </r>
       <r>   -0.0727    1.0000 </r>
       <r>    0.0150    1.0000 </r>
       <r>    0.0745    1.0000 </r>
       <r>    0.2252    1.0000 </r>
       <r>    0.2848    1.0000 </r>
       <r>    0.3617    1.0000 </r>
       <r>    0.3969    1.0000 </r>
       <r>    0.4654    1.0000 </r>
       <r>    0.5022    1.0000 </r>
       <r>    0.5582    1.0000 </r>
       <r>    0.5797    1.0000 </r>
       <r>    0.6980    1.0000 </r>
       <r>    0.8120    1.0000 </r>
       <r>    0.8796    1.0000 </r>
       <r>    0.9495    1.0000 </r>
       <r>    0.9928    1.0000 </r>
       <r>    1.0336    1.0000 </r>
       <r>    1.0686    1.0000 </r>
       <r>    1.2402    1.0000 </r>
       <r>    1.2886    1.0000 </r>
       <r>    1.3044    1.0000 </r>
       <r>    1.3781    1.0000 </r>
       <r>    1.4888    1.0000 </r>
       <r>    1.5613    1.0000 </r>
       <r>    1.5864    1.0000 </r>
       <r>    1.6698    1.0000 </r>
       <r>    1.7824    1.0000 </r>
       <r>    1.8224    1.0000 </r>
       <r>    1.8596    1.0000 </r>
       <r>    1.9138    1.0000 </r>
       <r>    1.9765    1.0000 </r>
       <r>    1.9825    1.0000 </r>
       <r>    2.0150    1.0000 </r>
       <r>    2.0528    1.0000 </r>
       <r>    2.0889    1.0000 </r>
       <r>    2.1969    1.0000 </r>
       <r>    2.2174    1.0000 </r>
       <r>    2.3501    1.0000 </r>
       <r>    2.3866    1.0000 </r>
       <r>    2.3998    1.0000 </r>
       <r>    2.4608    1.0000 </r>
       <r>    2.5258    1.0000 </r>
       <r>    2.5771    1.0000 </r>
       <r>    2.6275    1.0000 </r>
       <r>    2.7184    1.0000 </r>
       <r>    2.8026    1.0000 </r>
       <r>    2.9189    1.0000 </r>
       <r>    3.0091    1.0000 </r>
       <r>    3.1782    1.0016 </r>
       <r>    5.3278   -0.0000 </r>
       <r>    5.7708   -0.0000 </r>
       <r>    5.9453   -0.0000 </r>
       <r>    6.1163   -0.0000 </r>
       <r>    6.1631    0.0000 </r>
       <r>    6.2012    0.0000 </r>
       <r>    6.2691    0.0000 </r>
       <r>    6.6639    0.0000 </r>
       <r>    6.9626    0.0000 </r>
       <r>    6.9948    0.0000 </r>
       <r>    7.1390    0.0000 </r>
       <r>    7.2054    0.0000 </r>
       <r>    7.3555    0.0000 </r>
       <r>    7.3867    0.0000 </r>
       <r>    7.4291    0.0000 </r>
       <r>    7.4962    0.0000 </r>
       <r>    7.5899    0.0000 </r>
       <r>    7.6617    0.0000 </r>
       <r>    8.1011    0.0000 </r>
       <r>    8.3142    0.0000 </r>
       <r>    8.3784    0.0000 </r>
       <r>    8.6575    0.0000 </r>
       <r>    8.7405    0.0000 </r>
       <r>    8.8960    0.0000 </r>
       <r>    9.0215    0.0000 </r>
       <r>    9.3975    0.0000 </r>
       <r>    9.4763    0.0000 </r>
       <r>    9.5086    0.0000 </r>
       <r>    9.8988    0.0000 </r>
       <r>   10.0364    0.0000 </r>
       <r>   10.1561    0.0000 </r>
       <r>   10.2858    0.0000 </r>
       <r>   10.3443    0.0000 </r>
       <r>   10.4071    0.0000 </r>
       <r>   10.5138    0.0000 </r>
       <r>   10.6646    0.0000 </r>
       <r>   10.7435    0.0000 </r>
       <r>   10.8257    0.0000 </r>
       <r>   10.9199    0.0000 </r>
       <r>   10.9931    0.0000 </r>
       <r>   11.0817    0.0000 </r>
       <r>   11.2563    0.0000 </r>
       <r>   11.3105    0.0000 </r>
       <r>   11.3945    0.0000 </r>
       <r>   11.5077    0.0000 </r>
       <r>   11.6260    0.0000 </r>
       <r>   11.6546    0.0000 </r>
       <r>   11.7433    0.0000 </r>
       <r>   11.8244    0.0000 </r>
       <r>   11.8932    0.0000 </r>
      </set>
      <set comment="kpoint 3">
       <r>  -61.6193    1.0000 </r>
       <r>  -61.2887    1.0000 </r>
       <r>  -61.2243    1.0000 </r>
       <r>  -60.8015    1.0000 </r>
       <r>  -60.7873    1.0000 </r>
       <r>  -60.7041    1.0000 </r>
       <r>  -52.9819    1.0000 </r>
       <r>  -52.6596    1.0000 </r>
       <r>  -52.5487    1.0000 </r>
       <r>  -52.5019    1.0000 </r>
       <r>  -51.9771    1.0000 </r>
       <r>  -51.9651    1.0000 </r>
       <r>  -29.3682    1.0000 </r>
       <r>  -29.0479    1.0000 </r>
       <r>  -29.0095    1.0000 </r>
       <r>  -28.8747    1.0000 </r>
       <r>  -28.8090    1.0000 </r>
       <r>  -28.7907    1.0000 </r>
       <r>  -28.7406    1.0000 </r>
       <r>  -28.6739    1.0000 </r>
       <r>  -28.6185    1.0000 </r>
       <r>  -28.6004    1.0000 </r>
       <r>  -28.5959    1.0000 </r>
       <r>  -28.5339    1.0000 </r>
       <r>  -28.0854    1.0000 </r>
       <r>  -28.0840    1.0000 </r>
       <r>  -28.0795    1.0000 </r>
       <r>  -28.0449    1.0000 </r>
       <r>  -28.0438    1.0000 </r>
       <r>  -28.0346    1.0000 </r>
       <r>  -24.7545    1.0000 </r>
       <r>  -24.7408    1.0000 </r>
       <r>  -24.7398    1.0000 </r>
       <r>  -24.7279    1.0000 </r>
       <r>  -21.8712    1.0000 </r>
       <r>  -21.8013    1.0000 </r>
       <r>  -21.7918    1.0000 </r>
       <r>  -21.7326    1.0000 </r>
       <r>  -15.1425    1.0000 </r>
       <r>  -14.3558    1.0000 </r>
       <r>  -14.1559    1.0000 </r>
       <r>  -13.9889    1.0000 </r>
       <r>  -13.8962    1.0000 </r>
       <r>  -13.8147    1.0000 </r>
       <r>  -13.6279    1.0000 </r>
       <r>  -13.5338    1.0000 </r>
       <r>  -13.5300    1.0000 </r>
       <r>  -13.4764    1.0000 </r>
       <r>  -13.4142    1.0000 </r>
       <r>  -13.3382    1.0000 </r>
       <r>  -13.2687    1.0000 </r>
       <r>  -13.2421    1.0000 </r>
       <r>  -13.1865    1.0000 </r>
       <r>  -13.0969    1.0000 </r>
       <r>  -13.0401    1.0000 </r>
       <r>  -12.8210    1.0000 </r>
       <r>  -12.5988    1.0000 </r>
       <r>  -12.5036    1.0000 </r>
       <r>  -12.4929    1.0000 </r>
       <r>  -12.4510    1.0000 </r>
       <r>  -12.3172    1.0000 </r>
       <r>   -8.4081    1.0000 </r>
       <r>   -8.3928    1.0000 </r>
       <r>   -8.3242    1.0000 </r>
       <r>   -8.2962    1.0000 </r>
       <r>   -8.2756    1.0000 </r>
       <r>   -8.2715    1.0000 </r>
       <r>   -8.2671    1.0000 </r>
       <r>   -8.2578    1.0000 </r>
       <r>   -8.2475    1.0000 </r>
       <r>   -8.2237    1.0000 </r>
       <r>   -8.2138    1.0000 </r>
       <r>   -8.1955    1.0000 </r>
       <r>   -7.4050    1.0000 </r>
       <r>   -7.3716    1.0000 </r>
       <r>   -7.1733    1.0000 </r>
       <r>   -7.1425    1.0000 </r>
       <r>   -7.0665    1.0000 </r>
       <r>   -6.9857    1.0000 </r>
       <r>   -6.9804    1.0000 </r>
       <r>   -6.9648    1.0000 </r>
       <r>   -6.9520    1.0000 </r>
       <r>   -6.9208    1.0000 </r>
       <r>   -6.8817    1.0000 </r>
       <r>   -6.8388    1.0000 </r>
       <r>   -2.6528    1.0000 </r>
       <r>   -2.4844    1.0000 </r>
       <r>   -2.3030    1.0000 </r>
       <r>   -2.1613    1.0000 </r>
       <r>   -2.1386    1.0000 </r>
       <r>   -2.1047    1.0000 </r>
       <r>   -1.9471    1.0000 </r>
       <r>   -1.8141    1.0000 </r>
       <r>   -1.7138    1.0000 </r>
       <r>   -1.6130    1.0000 </r>
       <r>   -1.3644    1.0000 </r>
       <r>   -1.2331    1.0000 </r>
       <r>   -1.2133    1.0000 </r>
       <r>   -1.1625    1.0000 </r>
       <r>   -1.0977    1.0000 </r>
       <r>   -1.0673    1.0000 </r>
       <r>   -1.0052    1.0000 </r>
       <r>   -0.9270    1.0000 </r>
       <r>   -0.7798    1.0000 </r>
       <r>   -0.6608    1.0000 </r>
       <r>   -0.6078    1.0000 </r>
       <r>   -0.5684    1.0000 </r>
       <r>   -0.5257    1.0000 </r>
       <r>   -0.4781    1.0000 </r>
       <r>   -0.4095    1.0000 </r>
       <r>   -0.3235    1.0000 </r>
       <r>   -0.2958    1.0000 </r>
       <r>   -0.2071    1.0000 </r>
       <r>   -0.0920    1.0000 </r>
       <r>    0.0257    1.0000 </r>
       <r>    0.0451    1.0000 </r>
       <r>    0.0863    1.0000 </r>
       <r>    0.1833    1.0000 </r>
       <r>    0.2332    1.0000 </r>
       <r>    0.2767    1.0000 </r>
       <r>    0.3481    1.0000 </r>
       <r>    0.4398    1.0000 </r>
       <r>    0.4622    1.0000 </r>
       <r>    0.4927    1.0000 </r>
       <r>    0.5193    1.0000 </r>
       <r>    0.6231    1.0000 </r>
       <r>    0.6814    1.0000 </r>
       <r>    0.7310    1.0000 </r>
       <r>    0.7796    1.0000 </r>
       <r>    0.9073    1.0000 </r>
       <r>    0.9405    1.0000 </r>
       <r>    1.0741    1.0000 </r>
       <r>    1.1468    1.0000 </r>
       <r>    1.1934    1.0000 </r>
       <r>    1.2177    1.0000 </r>
       <r>    1.3061    1.0000 </r>
       <r>    1.3320    1.0000 </r>
       <r>    1.4102    1.0000 </r>
       <r>    1.5288    1.0000 </r>
       <r>    1.6290    1.0000 </r>
       <r>    1.6573    1.0000 </r>
       <r>    1.7321    1.0000 </r>
       <r>    1.9041    1.0000 </r>
       <r>    1.9594    1.0000 </r>
       <r>    2.0007    1.0000 </r>
       <r>    2.0185    1.0000 </r>
       <r>    2.0700    1.0000 </r>
       <r>    2.0922    1.0000 </r>
       <r>    2.1271    1.0000 </r>
       <r>    2.1786    1.0000 </r>
       <r>    2.1937    1.0000 </r>
       <r>    2.2304    1.0000 </r>
       <r>    2.2612    1.0000 </r>
       <r>    2.2970    1.0000 </r>
       <r>    2.3599    1.0000 </r>
       <r>    2.4130    1.0000 </r>
       <r>    2.4781    1.0000 </r>
       <r>    2.5292    1.0000 </r>
       <r>    2.5625    1.0000 </r>
       <r>    2.6135    1.0000 </r>
       <r>    2.7847    1.0000 </r>
       <r>    2.8352    1.0000 </r>
       <r>    2.9063    1.0000 </r>
       <r>    3.3079    1.0339 </r>
       <r>    5.0723   -0.0000 </r>
       <r>    5.8980   -0.0000 </r>
       <r>    5.9370   -0.0000 </r>
       <r>    6.1074   -0.0000 </r>
       <r>    6.1965    0.0000 </r>
       <r>    6.3733    0.0000 </r>
       <r>    6.3779    0.0000 </r>
       <r>    6.6961    0.0000 </r>
       <r>    6.9341    0.0000 </r>
       <r>    7.0415    0.0000 </r>
       <r>    7.0623    0.0000 </r>
       <r>    7.1095    0.0000 </r>
       <r>    7.2158    0.0000 </r>
       <r>    7.3590    0.0000 </r>
       <r>    7.4019    0.0000 </r>
       <r>    7.5484    0.0000 </r>
       <r>    7.5949    0.0000 </r>
       <r>    7.8427    0.0000 </r>
       <r>    7.9010    0.0000 </r>
       <r>    8.0777    0.0000 </r>
       <r>    8.4353    0.0000 </r>
       <r>    8.5778    0.0000 </r>
       <r>    8.8364    0.0000 </r>
       <r>    8.9074    0.0000 </r>
       <r>    9.2055    0.0000 </r>
       <r>    9.3591    0.0000 </r>
       <r>    9.4973    0.0000 </r>
       <r>    9.6139    0.0000 </r>
       <r>    9.8021    0.0000 </r>
       <r>    9.9397    0.0000 </r>
       <r>   10.1010    0.0000 </r>
       <r>   10.1126    0.0000 </r>
       <r>   10.2216    0.0000 </r>
       <r>   10.4563    0.0000 </r>
       <r>   10.5348    0.0000 </r>
       <r>   10.6700    0.0000 </r>
       <r>   10.7490    0.0000 </r>
       <r>   10.9145    0.0000 </r>
       <r>   10.9784    0.0000 </r>
       <r>   11.0920    0.0000 </r>
       <r>   11.1779    0.0000 </r>
       <r>   11.2244    0.0000 </r>
       <r>   11.2376    0.0000 </r>
       <r>   11.3355    0.0000 </r>
       <r>   11.4840    0.0000 </r>
       <r>   11.5401    0.0000 </r>
       <r>   11.6344    0.0000 </r>
       <r>   11.7357    0.0000 </r>
       <r>   11.8237    0.0000 </r>
       <r>   11.9679    0.0000 </r>
      </set>
      <set comment="kpoint 4">
       <r>  -61.6193    1.0000 </r>
       <r>  -61.2886    1.0000 </r>
       <r>  -61.2242    1.0000 </r>
       <r>  -60.8015    1.0000 </r>
       <r>  -60.7873    1.0000 </r>
       <r>  -60.7041    1.0000 </r>
       <r>  -52.9819    1.0000 </r>
       <r>  -52.6596    1.0000 </r>
       <r>  -52.5487    1.0000 </r>
       <r>  -52.5019    1.0000 </r>
       <r>  -51.9771    1.0000 </r>
       <r>  -51.9651    1.0000 </r>
       <r>  -29.3682    1.0000 </r>
       <r>  -29.0442    1.0000 </r>
       <r>  -29.0094    1.0000 </r>
       <r>  -28.8746    1.0000 </r>
       <r>  -28.8090    1.0000 </r>
       <r>  -28.7907    1.0000 </r>
       <r>  -28.7246    1.0000 </r>
       <r>  -28.6739    1.0000 </r>
       <r>  -28.6186    1.0000 </r>
       <r>  -28.6127    1.0000 </r>
       <r>  -28.6045    1.0000 </r>
       <r>  -28.5339    1.0000 </r>
       <r>  -28.0853    1.0000 </r>
       <r>  -28.0840    1.0000 </r>
       <r>  -28.0796    1.0000 </r>
       <r>  -28.0446    1.0000 </r>
       <r>  -28.0441    1.0000 </r>
       <r>  -28.0346    1.0000 </r>
       <r>  -24.7515    1.0000 </r>
       <r>  -24.7437    1.0000 </r>
       <r>  -24.7374    1.0000 </r>
       <r>  -24.7303    1.0000 </r>
       <r>  -21.8518    1.0000 </r>
       <r>  -21.8119    1.0000 </r>
       <r>  -21.7846    1.0000 </r>
       <r>  -21.7497    1.0000 </r>
       <r>  -15.1401    1.0000 </r>
       <r>  -14.1944    1.0000 </r>
       <r>  -14.0394    1.0000 </r>
       <r>  -13.9539    1.0000 </r>
       <r>  -13.8900    1.0000 </r>
       <r>  -13.7948    1.0000 </r>
       <r>  -13.6994    1.0000 </r>
       <r>  -13.6059    1.0000 </r>
       <r>  -13.5224    1.0000 </r>
       <r>  -13.4611    1.0000 </r>
       <r>  -13.4244    1.0000 </r>
       <r>  -13.3831    1.0000 </r>
       <r>  -13.3347    1.0000 </r>
       <r>  -13.2622    1.0000 </r>
       <r>  -13.2012    1.0000 </r>
       <r>  -13.1113    1.0000 </r>
       <r>  -13.0375    1.0000 </r>
       <r>  -12.8807    1.0000 </r>
       <r>  -12.6771    1.0000 </r>
       <r>  -12.5376    1.0000 </r>
       <r>  -12.4975    1.0000 </r>
       <r>  -12.4181    1.0000 </r>
       <r>  -12.3115    1.0000 </r>
       <r>   -8.4048    1.0000 </r>
       <r>   -8.3797    1.0000 </r>
       <r>   -8.3339    1.0000 </r>
       <r>   -8.3136    1.0000 </r>
       <r>   -8.2815    1.0000 </r>
       <r>   -8.2745    1.0000 </r>
       <r>   -8.2714    1.0000 </r>
       <r>   -8.2588    1.0000 </r>
       <r>   -8.2346    1.0000 </r>
       <r>   -8.2265    1.0000 </r>
       <r>   -8.1956    1.0000 </r>
       <r>   -8.1916    1.0000 </r>
       <r>   -7.3841    1.0000 </r>
       <r>   -7.3294    1.0000 </r>
       <r>   -7.2912    1.0000 </r>
       <r>   -7.1098    1.0000 </r>
       <r>   -7.0743    1.0000 </r>
       <r>   -7.0393    1.0000 </r>
       <r>   -7.0231    1.0000 </r>
       <r>   -6.9511    1.0000 </r>
       <r>   -6.9249    1.0000 </r>
       <r>   -6.8990    1.0000 </r>
       <r>   -6.8732    1.0000 </r>
       <r>   -6.8157    1.0000 </r>
       <r>   -2.6408    1.0000 </r>
       <r>   -2.3196    1.0000 </r>
       <r>   -2.2482    1.0000 </r>
       <r>   -1.9771    1.0000 </r>
       <r>   -1.8622    1.0000 </r>
       <r>   -1.8180    1.0000 </r>
       <r>   -1.7914    1.0000 </r>
       <r>   -1.6686    1.0000 </r>
       <r>   -1.5117    1.0000 </r>
       <r>   -1.4615    1.0000 </r>
       <r>   -1.2824    1.0000 </r>
       <r>   -1.1868    1.0000 </r>
       <r>   -1.1496    1.0000 </r>
       <r>   -1.0711    1.0000 </r>
       <r>   -1.0269    1.0000 </r>
       <r>   -0.9855    1.0000 </r>
       <r>   -0.9314    1.0000 </r>
       <r>   -0.8545    1.0000 </r>
       <r>   -0.8031    1.0000 </r>
       <r>   -0.7251    1.0000 </r>
       <r>   -0.6215    1.0000 </r>
       <r>   -0.5912    1.0000 </r>
       <r>   -0.5423    1.0000 </r>
       <r>   -0.5128    1.0000 </r>
       <r>   -0.4910    1.0000 </r>
       <r>   -0.4294    1.0000 </r>
       <r>   -0.3802    1.0000 </r>
       <r>   -0.3250    1.0000 </r>
       <r>   -0.2764    1.0000 </r>
       <r>   -0.1994    1.0000 </r>
       <r>   -0.1410    1.0000 </r>
       <r>   -0.1158    1.0000 </r>
       <r>   -0.0049    1.0000 </r>
       <r>    0.0813    1.0000 </r>
       <r>    0.1145    1.0000 </r>
       <r>    0.1620    1.0000 </r>
       <r>    0.2102    1.0000 </r>
       <r>    0.2724    1.0000 </r>
       <r>    0.3818    1.0000 </r>
       <r>    0.4636    1.0000 </r>
       <r>    0.5082    1.0000 </r>
       <r>    0.5326    1.0000 </r>
       <r>    0.6072    1.0000 </r>
       <r>    0.6604    1.0000 </r>
       <r>    0.7593    1.0000 </r>
       <r>    0.9139    1.0000 </r>
       <r>    0.9907    1.0000 </r>
       <r>    1.0395    1.0000 </r>
       <r>    1.1249    1.0000 </r>
       <r>    1.2499    1.0000 </r>
       <r>    1.2768    1.0000 </r>
       <r>    1.4614    1.0000 </r>
       <r>    1.5178    1.0000 </r>
       <r>    1.6299    1.0000 </r>
       <r>    1.6626    1.0000 </r>
       <r>    1.7737    1.0000 </r>
       <r>    1.8782    1.0000 </r>
       <r>    1.9151    1.0000 </r>
       <r>    1.9558    1.0000 </r>
       <r>    2.0078    1.0000 </r>
       <r>    2.0334    1.0000 </r>
       <r>    2.0866    1.0000 </r>
       <r>    2.1105    1.0000 </r>
       <r>    2.1257    1.0000 </r>
       <r>    2.1462    1.0000 </r>
       <r>    2.2175    1.0000 </r>
       <r>    2.2718    1.0000 </r>
       <r>    2.3014    1.0000 </r>
       <r>    2.3410    1.0000 </r>
       <r>    2.3918    1.0000 </r>
       <r>    2.4164    1.0000 </r>
       <r>    2.4280    1.0000 </r>
       <r>    2.5339    1.0000 </r>
       <r>    2.5406    1.0000 </r>
       <r>    2.6642    1.0000 </r>
       <r>    2.8355    1.0000 </r>
       <r>    2.9443    1.0000 </r>
       <r>    3.1177    1.0001 </r>
       <r>    3.2606    1.0230 </r>
       <r>    5.3264   -0.0000 </r>
       <r>    5.7658   -0.0000 </r>
       <r>    5.9273   -0.0000 </r>
       <r>    6.1733    0.0000 </r>
       <r>    6.3123    0.0000 </r>
       <r>    6.3655    0.0000 </r>
       <r>    6.4382    0.0000 </r>
       <r>    6.6612    0.0000 </r>
       <r>    6.8928    0.0000 </r>
       <r>    6.9252    0.0000 </r>
       <r>    6.9782    0.0000 </r>
       <r>    7.0378    0.0000 </r>
       <r>    7.0942    0.0000 </r>
       <r>    7.1784    0.0000 </r>
       <r>    7.2541    0.0000 </r>
       <r>    7.4103    0.0000 </r>
       <r>    7.4408    0.0000 </r>
       <r>    7.6869    0.0000 </r>
       <r>    7.9735    0.0000 </r>
       <r>    8.4309    0.0000 </r>
       <r>    8.5304    0.0000 </r>
       <r>    8.9331    0.0000 </r>
       <r>    9.2274    0.0000 </r>
       <r>    9.3400    0.0000 </r>
       <r>    9.6059    0.0000 </r>
       <r>    9.6738    0.0000 </r>
       <r>    9.6965    0.0000 </r>
       <r>    9.8420    0.0000 </r>
       <r>    9.9612    0.0000 </r>
       <r>   10.0410    0.0000 </r>
       <r>   10.1533    0.0000 </r>
       <r>   10.2608    0.0000 </r>
       <r>   10.2924    0.0000 </r>
       <r>   10.4092    0.0000 </r>
       <r>   10.4625    0.0000 </r>
       <r>   10.5818    0.0000 </r>
       <r>   10.6568    0.0000 </r>
       <r>   10.7641    0.0000 </r>
       <r>   10.9142    0.0000 </r>
       <r>   10.9722    0.0000 </r>
       <r>   11.0680    0.0000 </r>
       <r>   11.1276    0.0000 </r>
       <r>   11.2035    0.0000 </r>
       <r>   11.3027    0.0000 </r>
       <r>   11.3761    0.0000 </r>
       <r>   11.4442    0.0000 </r>
       <r>   11.5335    0.0000 </r>
       <r>   11.6128    0.0000 </r>
       <r>   11.7356    0.0000 </r>
       <r>   11.8134    0.0000 </r>
      </set>
      <set comment="kpoint 5">
       <r>  -61.6193    1.0000 </r>
       <r>  -61.2886    1.0000 </r>
       <r>  -61.2243    1.0000 </r>
       <r>  -60.8014    1.0000 </r>
       <r>  -60.7873    1.0000 </r>
       <r>  -60.7041    1.0000 </r>
       <r>  -52.9819    1.0000 </r>
       <r>  -52.6596    1.0000 </r>
       <r>  -52.5487    1.0000 </r>
       <r>  -52.5019    1.0000 </r>
       <r>  -51.9771    1.0000 </r>
       <r>  -51.9651    1.0000 </r>
       <r>  -29.3678    1.0000 </r>
       <r>  -29.0479    1.0000 </r>
       <r>  -29.0108    1.0000 </r>
       <r>  -28.8751    1.0000 </r>
       <r>  -28.8046    1.0000 </r>
       <r>  -28.7907    1.0000 </r>
       <r>  -28.7406    1.0000 </r>
       <r>  -28.6762    1.0000 </r>
       <r>  -28.6232    1.0000 </r>
       <r>  -28.6004    1.0000 </r>
       <r>  -28.5959    1.0000 </r>
       <r>  -28.5339    1.0000 </r>
       <r>  -28.0840    1.0000 </r>
       <r>  -28.0834    1.0000 </r>
       <r>  -28.0768    1.0000 </r>
       <r>  -28.0446    1.0000 </r>
       <r>  -28.0441    1.0000 </r>
       <r>  -28.0346    1.0000 </r>
       <r>  -24.7562    1.0000 </r>
       <r>  -24.7417    1.0000 </r>
       <r>  -24.7380    1.0000 </r>
       <r>  -24.7269    1.0000 </r>
       <r>  -21.8821    1.0000 </r>
       <r>  -21.7989    1.0000 </r>
       <r>  -21.7901    1.0000 </r>
       <r>  -21.7253    1.0000 </r>
       <r>  -15.1419    1.0000 </r>
       <r>  -14.3680    1.0000 </r>
       <r>  -14.1558    1.0000 </r>
       <r>  -14.0941    1.0000 </r>
       <r>  -13.9361    1.0000 </r>
       <r>  -13.7998    1.0000 </r>
       <r>  -13.7215    1.0000 </r>
       <r>  -13.5420    1.0000 </r>
       <r>  -13.4836    1.0000 </r>
       <r>  -13.4287    1.0000 </r>
       <r>  -13.3909    1.0000 </r>
       <r>  -13.3028    1.0000 </r>
       <r>  -13.2469    1.0000 </r>
       <r>  -13.1900    1.0000 </r>
       <r>  -13.1613    1.0000 </r>
       <r>  -13.0336    1.0000 </r>
       <r>  -13.0239    1.0000 </r>
       <r>  -12.8576    1.0000 </r>
       <r>  -12.5936    1.0000 </r>
       <r>  -12.5200    1.0000 </r>
       <r>  -12.5146    1.0000 </r>
       <r>  -12.4435    1.0000 </r>
       <r>  -12.3171    1.0000 </r>
       <r>   -8.4234    1.0000 </r>
       <r>   -8.4122    1.0000 </r>
       <r>   -8.3248    1.0000 </r>
       <r>   -8.2888    1.0000 </r>
       <r>   -8.2776    1.0000 </r>
       <r>   -8.2628    1.0000 </r>
       <r>   -8.2544    1.0000 </r>
       <r>   -8.2475    1.0000 </r>
       <r>   -8.2422    1.0000 </r>
       <r>   -8.2275    1.0000 </r>
       <r>   -8.2139    1.0000 </r>
       <r>   -8.1835    1.0000 </r>
       <r>   -7.4525    1.0000 </r>
       <r>   -7.3856    1.0000 </r>
       <r>   -7.2090    1.0000 </r>
       <r>   -7.1128    1.0000 </r>
       <r>   -7.0258    1.0000 </r>
       <r>   -7.0131    1.0000 </r>
       <r>   -6.9799    1.0000 </r>
       <r>   -6.9709    1.0000 </r>
       <r>   -6.9433    1.0000 </r>
       <r>   -6.8838    1.0000 </r>
       <r>   -6.8613    1.0000 </r>
       <r>   -6.8391    1.0000 </r>
       <r>   -2.6975    1.0000 </r>
       <r>   -2.4773    1.0000 </r>
       <r>   -2.2206    1.0000 </r>
       <r>   -2.1804    1.0000 </r>
       <r>   -2.1446    1.0000 </r>
       <r>   -2.1279    1.0000 </r>
       <r>   -2.0085    1.0000 </r>
       <r>   -1.8269    1.0000 </r>
       <r>   -1.7173    1.0000 </r>
       <r>   -1.6169    1.0000 </r>
       <r>   -1.5975    1.0000 </r>
       <r>   -1.2884    1.0000 </r>
       <r>   -1.2580    1.0000 </r>
       <r>   -1.1662    1.0000 </r>
       <r>   -1.0841    1.0000 </r>
       <r>   -1.0105    1.0000 </r>
       <r>   -0.9855    1.0000 </r>
       <r>   -0.9245    1.0000 </r>
       <r>   -0.7944    1.0000 </r>
       <r>   -0.6792    1.0000 </r>
       <r>   -0.6160    1.0000 </r>
       <r>   -0.4656    1.0000 </r>
       <r>   -0.4366    1.0000 </r>
       <r>   -0.4226    1.0000 </r>
       <r>   -0.3544    1.0000 </r>
       <r>   -0.2935    1.0000 </r>
       <r>   -0.2728    1.0000 </r>
       <r>   -0.2393    1.0000 </r>
       <r>   -0.1559    1.0000 </r>
       <r>   -0.0403    1.0000 </r>
       <r>   -0.0144    1.0000 </r>
       <r>    0.0757    1.0000 </r>
       <r>    0.1159    1.0000 </r>
       <r>    0.1782    1.0000 </r>
       <r>    0.2236    1.0000 </r>
       <r>    0.2415    1.0000 </r>
       <r>    0.3183    1.0000 </r>
       <r>    0.4161    1.0000 </r>
       <r>    0.4819    1.0000 </r>
       <r>    0.5593    1.0000 </r>
       <r>    0.6306    1.0000 </r>
       <r>    0.7649    1.0000 </r>
       <r>    0.8614    1.0000 </r>
       <r>    0.9055    1.0000 </r>
       <r>    0.9516    1.0000 </r>
       <r>    1.0239    1.0000 </r>
       <r>    1.0657    1.0000 </r>
       <r>    1.1778    1.0000 </r>
       <r>    1.2214    1.0000 </r>
       <r>    1.2869    1.0000 </r>
       <r>    1.3240    1.0000 </r>
       <r>    1.4194    1.0000 </r>
       <r>    1.4865    1.0000 </r>
       <r>    1.5500    1.0000 </r>
       <r>    1.5816    1.0000 </r>
       <r>    1.6264    1.0000 </r>
       <r>    1.6709    1.0000 </r>
       <r>    1.8395    1.0000 </r>
       <r>    1.8935    1.0000 </r>
       <r>    1.9056    1.0000 </r>
       <r>    1.9497    1.0000 </r>
       <r>    1.9596    1.0000 </r>
       <r>    2.0250    1.0000 </r>
       <r>    2.0560    1.0000 </r>
       <r>    2.0706    1.0000 </r>
       <r>    2.1777    1.0000 </r>
       <r>    2.2159    1.0000 </r>
       <r>    2.2560    1.0000 </r>
       <r>    2.3045    1.0000 </r>
       <r>    2.4353    1.0000 </r>
       <r>    2.5269    1.0000 </r>
       <r>    2.5539    1.0000 </r>
       <r>    2.6351    1.0000 </r>
       <r>    2.7249    1.0000 </r>
       <r>    2.7510    1.0000 </r>
       <r>    2.7935    1.0000 </r>
       <r>    2.9452    1.0000 </r>
       <r>    3.0307    1.0000 </r>
       <r>    3.1655    1.0009 </r>
       <r>    5.2754   -0.0000 </r>
       <r>    5.8590   -0.0000 </r>
       <r>    5.9587   -0.0000 </r>
       <r>    6.0102   -0.0000 </r>
       <r>    6.0976   -0.0000 </r>
       <r>    6.3703    0.0000 </r>
       <r>    6.3898    0.0000 </r>
       <r>    6.7189    0.0000 </r>
       <r>    7.1097    0.0000 </r>
       <r>    7.1708    0.0000 </r>
       <r>    7.1921    0.0000 </r>
       <r>    7.2459    0.0000 </r>
       <r>    7.4073    0.0000 </r>
       <r>    7.4443    0.0000 </r>
       <r>    7.4844    0.0000 </r>
       <r>    7.5012    0.0000 </r>
       <r>    7.5074    0.0000 </r>
       <r>    7.6980    0.0000 </r>
       <r>    7.7189    0.0000 </r>
       <r>    7.9759    0.0000 </r>
       <r>    8.3358    0.0000 </r>
       <r>    8.5414    0.0000 </r>
       <r>    8.6564    0.0000 </r>
       <r>    8.8357    0.0000 </r>
       <r>    9.0105    0.0000 </r>
       <r>    9.2462    0.0000 </r>
       <r>    9.3933    0.0000 </r>
       <r>    9.5227    0.0000 </r>
       <r>    9.6392    0.0000 </r>
       <r>    9.8139    0.0000 </r>
       <r>    9.9949    0.0000 </r>
       <r>   10.2232    0.0000 </r>
       <r>   10.3287    0.0000 </r>
       <r>   10.5522    0.0000 </r>
       <r>   10.6120    0.0000 </r>
       <r>   10.8097    0.0000 </r>
       <r>   10.8532    0.0000 </r>
       <r>   10.9306    0.0000 </r>
       <r>   11.0358    0.0000 </r>
       <r>   11.1610    0.0000 </r>
       <r>   11.1888    0.0000 </r>
       <r>   11.2600    0.0000 </r>
       <r>   11.3595    0.0000 </r>
       <r>   11.4220    0.0000 </r>
       <r>   11.4727    0.0000 </r>
       <r>   11.5631    0.0000 </r>
       <r>   11.6277    0.0000 </r>
       <r>   11.7150    0.0000 </r>
       <r>   11.7804    0.0000 </r>
       <r>   11.9219    0.0000 </r>
      </set>
      <set comment="kpoint 6">
       <r>  -61.6193    1.0000 </r>
       <r>  -61.2886    1.0000 </r>
       <r>  -61.2243    1.0000 </r>
       <r>  -60.8014    1.0000 </r>
       <r>  -60.7873    1.0000 </r>
       <r>  -60.7041    1.0000 </r>
       <r>  -52.9819    1.0000 </r>
       <r>  -52.6596    1.0000 </r>
       <r>  -52.5487    1.0000 </r>
       <r>  -52.5019    1.0000 </r>
       <r>  -51.9771    1.0000 </r>
       <r>  -51.9651    1.0000 </r>
       <r>  -29.3679    1.0000 </r>
       <r>  -29.0442    1.0000 </r>
       <r>  -29.0108    1.0000 </r>
       <r>  -28.8751    1.0000 </r>
       <r>  -28.8047    1.0000 </r>
       <r>  -28.7907    1.0000 </r>
       <r>  -28.7246    1.0000 </r>
       <r>  -28.6762    1.0000 </r>
       <r>  -28.6232    1.0000 </r>
       <r>  -28.6127    1.0000 </r>
       <r>  -28.6045    1.0000 </r>
       <r>  -28.5339    1.0000 </r>
       <r>  -28.0840    1.0000 </r>
       <r>  -28.0834    1.0000 </r>
       <r>  -28.0768    1.0000 </r>
       <r>  -28.0445    1.0000 </r>
       <r>  -28.0442    1.0000 </r>
       <r>  -28.0346    1.0000 </r>
       <r>  -24.7531    1.0000 </r>
       <r>  -24.7449    1.0000 </r>
       <r>  -24.7358    1.0000 </r>
       <r>  -24.7291    1.0000 </r>
       <r>  -21.8619    1.0000 </r>
       <r>  -21.8198    1.0000 </r>
       <r>  -21.7741    1.0000 </r>
       <r>  -21.7417    1.0000 </r>
       <r>  -15.1393    1.0000 </r>
       <r>  -14.2375    1.0000 </r>
       <r>  -14.0455    1.0000 </r>
       <r>  -13.9986    1.0000 </r>
       <r>  -13.9319    1.0000 </r>
       <r>  -13.8193    1.0000 </r>
       <r>  -13.7279    1.0000 </r>
       <r>  -13.6563    1.0000 </r>
       <r>  -13.4871    1.0000 </r>
       <r>  -13.4265    1.0000 </r>
       <r>  -13.3999    1.0000 </r>
[...]
       <r>    7.6315    0.0000 </r>
       <r>    7.7116    0.0000 </r>
       <r>    8.0769    0.0000 </r>
       <r>    8.6924    0.0000 </r>
       <r>    8.8459    0.0000 </r>
       <r>    8.9890    0.0000 </r>
       <r>    9.1059    0.0000 </r>
       <r>    9.3632    0.0000 </r>
       <r>    9.5667    0.0000 </r>
       <r>    9.6696    0.0000 </r>
       <r>    9.7951    0.0000 </r>
       <r>   10.0559    0.0000 </r>
       <r>   10.1711    0.0000 </r>
       <r>   10.3064    0.0000 </r>
       <r>   10.3575    0.0000 </r>
       <r>   10.4049    0.0000 </r>
       <r>   10.5278    0.0000 </r>
       <r>   10.5750    0.0000 </r>
       <r>   10.7257    0.0000 </r>
       <r>   10.8288    0.0000 </r>
       <r>   10.8506    0.0000 </r>
       <r>   10.9550    0.0000 </r>
       <r>   11.0316    0.0000 </r>
       <r>   11.1641    0.0000 </r>
       <r>   11.2285    0.0000 </r>
       <r>   11.2533    0.0000 </r>
       <r>   11.3044    0.0000 </r>
       <r>   11.4406    0.0000 </r>
       <r>   11.4924    0.0000 </r>
       <r>   11.6633    0.0000 </r>
       <r>   11.7079    0.0000 </r>
       <r>   11.7538    0.0000 </r>
       <r>   11.8917    0.0000 </r>
      </set>
      <set comment="kpoint 7">
       <r>  -59.4375    1.0000 </r>
       <r>  -59.1719    1.0000 </r>
       <r>  -59.1167    1.0000 </r>
       <r>  -58.6555    1.0000 </r>
       <r>  -58.6485    1.0000 </r>
       <r>  -58.5777    1.0000 </r>
       <r>  -52.9821    1.0000 </r>
       <r>  -52.6601    1.0000 </r>
       <r>  -52.5417    1.0000 </r>
       <r>  -52.4946    1.0000 </r>
       <r>  -51.9626    1.0000 </r>
       <r>  -51.9502    1.0000 </r>
       <r>  -29.3672    1.0000 </r>
       <r>  -29.0484    1.0000 </r>
       <r>  -29.0099    1.0000 </r>
       <r>  -28.8642    1.0000 </r>
       <r>  -28.8051    1.0000 </r>
       <r>  -28.7818    1.0000 </r>
       <r>  -28.7405    1.0000 </r>
       <r>  -28.6747    1.0000 </r>
       <r>  -28.6184    1.0000 </r>
       <r>  -28.5963    1.0000 </r>
       <r>  -28.5926    1.0000 </r>
       <r>  -28.5188    1.0000 </r>
       <r>  -28.0760    1.0000 </r>
       <r>  -28.0702    1.0000 </r>
       <r>  -28.0641    1.0000 </r>
       <r>  -28.0253    1.0000 </r>
       <r>  -28.0246    1.0000 </r>
       <r>  -28.0143    1.0000 </r>
       <r>  -24.7547    1.0000 </r>
       <r>  -24.7411    1.0000 </r>
       <r>  -24.7401    1.0000 </r>
       <r>  -24.7282    1.0000 </r>
       <r>  -21.8716    1.0000 </r>
       <r>  -21.8018    1.0000 </r>
       <r>  -21.7924    1.0000 </r>
       <r>  -21.7332    1.0000 </r>
       <r>  -15.1385    1.0000 </r>
       <r>  -14.3475    1.0000 </r>
       <r>  -14.1343    1.0000 </r>
       <r>  -13.9588    1.0000 </r>
       <r>  -13.8659    1.0000 </r>
       <r>  -13.7379    1.0000 </r>
       <r>  -13.6304    1.0000 </r>
       <r>  -13.5376    1.0000 </r>
       <r>  -13.5195    1.0000 </r>
       <r>  -13.4468    1.0000 </r>
       <r>  -13.4222    1.0000 </r>
       <r>  -13.3254    1.0000 </r>
       <r>  -13.2974    1.0000 </r>
       <r>  -13.1873    1.0000 </r>
       <r>  -13.1693    1.0000 </r>
       <r>  -13.0744    1.0000 </r>
       <r>  -12.9448    1.0000 </r>
       <r>  -12.7975    1.0000 </r>
       <r>  -12.5696    1.0000 </r>
       <r>  -12.4582    1.0000 </r>
       <r>  -12.3842    1.0000 </r>
       <r>  -12.3644    1.0000 </r>
       <r>  -12.2214    1.0000 </r>
       <r>   -8.4037    1.0000 </r>
       <r>   -8.3916    1.0000 </r>
       <r>   -8.3174    1.0000 </r>
       <r>   -8.2997    1.0000 </r>
       <r>   -8.2770    1.0000 </r>
       <r>   -8.2717    1.0000 </r>
       <r>   -8.2678    1.0000 </r>
       <r>   -8.2582    1.0000 </r>
       <r>   -8.2473    1.0000 </r>
       <r>   -8.2237    1.0000 </r>
       <r>   -8.2145    1.0000 </r>
       <r>   -8.1967    1.0000 </r>
       <r>   -7.3985    1.0000 </r>
       <r>   -7.3761    1.0000 </r>
       <r>   -7.1731    1.0000 </r>
       <r>   -7.1559    1.0000 </r>
       <r>   -7.0595    1.0000 </r>
       <r>   -6.9841    1.0000 </r>
       <r>   -6.9790    1.0000 </r>
       <r>   -6.9634    1.0000 </r>
       <r>   -6.9486    1.0000 </r>
       <r>   -6.9186    1.0000 </r>
       <r>   -6.8803    1.0000 </r>
       <r>   -6.8353    1.0000 </r>
       <r>   -2.6788    1.0000 </r>
       <r>   -2.1639    1.0000 </r>
       <r>   -2.1335    1.0000 </r>
       <r>   -1.6458    1.0000 </r>
       <r>   -1.6034    1.0000 </r>
       <r>   -1.3341    1.0000 </r>
       <r>   -1.2859    1.0000 </r>
       <r>   -1.1302    1.0000 </r>
       <r>   -1.0984    1.0000 </r>
       <r>   -1.0601    1.0000 </r>
       <r>   -0.9969    1.0000 </r>
       <r>   -0.8693    1.0000 </r>
       <r>   -0.7275    1.0000 </r>
       <r>   -0.5517    1.0000 </r>
       <r>   -0.5160    1.0000 </r>
       <r>   -0.4941    1.0000 </r>
       <r>   -0.4609    1.0000 </r>
       <r>   -0.3304    1.0000 </r>
       <r>   -0.3056    1.0000 </r>
       <r>   -0.2674    1.0000 </r>
       <r>   -0.1916    1.0000 </r>
       <r>   -0.1317    1.0000 </r>
       <r>   -0.0878    1.0000 </r>
       <r>   -0.0722    1.0000 </r>
       <r>   -0.0305    1.0000 </r>
       <r>    0.0220    1.0000 </r>
       <r>    0.0913    1.0000 </r>
       <r>    0.1544    1.0000 </r>
       <r>    0.1613    1.0000 </r>
       <r>    0.2379    1.0000 </r>
       <r>    0.2647    1.0000 </r>
       <r>    0.2986    1.0000 </r>
       <r>    0.3192    1.0000 </r>
       <r>    0.4121    1.0000 </r>
       <r>    0.4488    1.0000 </r>
       <r>    0.5114    1.0000 </r>
       <r>    0.6255    1.0000 </r>
       <r>    0.7178    1.0000 </r>
       <r>    0.7606    1.0000 </r>
       <r>    0.8110    1.0000 </r>
       <r>    0.8755    1.0000 </r>
       <r>    0.9254    1.0000 </r>
       <r>    1.0151    1.0000 </r>
       <r>    1.0560    1.0000 </r>
       <r>    1.1693    1.0000 </r>
       <r>    1.2324    1.0000 </r>
       <r>    1.2414    1.0000 </r>
       <r>    1.3446    1.0000 </r>
       <r>    1.4207    1.0000 </r>
       <r>    1.4457    1.0000 </r>
       <r>    1.5842    1.0000 </r>
       <r>    1.6652    1.0000 </r>
       <r>    1.6844    1.0000 </r>
       <r>    1.8286    1.0000 </r>
       <r>    1.8994    1.0000 </r>
       <r>    1.9582    1.0000 </r>
       <r>    2.0230    1.0000 </r>
       <r>    2.0718    1.0000 </r>
       <r>    2.1011    1.0000 </r>
       <r>    2.1403    1.0000 </r>
       <r>    2.1987    1.0000 </r>
       <r>    2.2494    1.0000 </r>
       <r>    2.2811    1.0000 </r>
       <r>    2.3143    1.0000 </r>
       <r>    2.3438    1.0000 </r>
       <r>    2.3683    1.0000 </r>
       <r>    2.4171    1.0000 </r>
       <r>    2.4684    1.0000 </r>
       <r>    2.5181    1.0000 </r>
       <r>    2.5300    1.0000 </r>
       <r>    2.5762    1.0000 </r>
       <r>    2.6514    1.0000 </r>
       <r>    2.6828    1.0000 </r>
       <r>    3.0577    1.0000 </r>
       <r>    3.2169    1.0070 </r>
       <r>    5.2761   -0.0000 </r>
       <r>    5.5542   -0.0000 </r>
       <r>    6.0151   -0.0000 </r>
       <r>    6.0892   -0.0000 </r>
       <r>    6.1131   -0.0000 </r>
       <r>    6.2263    0.0000 </r>
       <r>    6.3140    0.0000 </r>
       <r>    6.3635    0.0000 </r>
       <r>    6.4965    0.0000 </r>
       <r>    6.7166    0.0000 </r>
       <r>    6.7933    0.0000 </r>
       <r>    6.8727    0.0000 </r>
       <r>    6.9858    0.0000 </r>
       <r>    7.0394    0.0000 </r>
       <r>    7.0782    0.0000 </r>
       <r>    7.1212    0.0000 </r>
       <r>    7.2186    0.0000 </r>
       <r>    7.2650    0.0000 </r>
       <r>    7.4705    0.0000 </r>
       <r>    7.4916    0.0000 </r>
       <r>    7.5423    0.0000 </r>
       <r>    7.6124    0.0000 </r>
       <r>    7.7538    0.0000 </r>
       <r>    7.9751    0.0000 </r>
       <r>    8.5718    0.0000 </r>
       <r>    8.8546    0.0000 </r>
       <r>    9.0482    0.0000 </r>
       <r>    9.2813    0.0000 </r>
       <r>    9.3444    0.0000 </r>
       <r>    9.5479    0.0000 </r>
       <r>    9.7124    0.0000 </r>
       <r>    9.8310    0.0000 </r>
       <r>    9.8650    0.0000 </r>
       <r>   10.0390    0.0000 </r>
       <r>   10.1393    0.0000 </r>
       <r>   10.1819    0.0000 </r>
       <r>   10.3707    0.0000 </r>
       <r>   10.5447    0.0000 </r>
       <r>   10.6112    0.0000 </r>
       <r>   10.7055    0.0000 </r>
       <r>   10.7675    0.0000 </r>
       <r>   10.8329    0.0000 </r>
       <r>   10.8934    0.0000 </r>
       <r>   11.0426    0.0000 </r>
       <r>   11.0772    0.0000 </r>
       <r>   11.2152    0.0000 </r>
       <r>   11.2480    0.0000 </r>
       <r>   11.3117    0.0000 </r>
       <r>   11.4103    0.0000 </r>
       <r>   11.4721    0.0000 </r>
       <r>   11.5321    0.0000 </r>
       <r>   11.6869    0.0000 </r>
       <r>   11.8596    0.0000 </r>
       <r>   11.9082    0.0000 </r>
      </set>
      <set comment="kpoint 8">
       <r>  -59.4375    1.0000 </r>
       <r>  -59.1719    1.0000 </r>
       <r>  -59.1167    1.0000 </r>
       <r>  -58.6555    1.0000 </r>
       <r>  -58.6485    1.0000 </r>
       <r>  -58.5777    1.0000 </r>
       <r>  -52.9821    1.0000 </r>
       <r>  -52.6601    1.0000 </r>
       <r>  -52.5417    1.0000 </r>
       <r>  -52.4946    1.0000 </r>
       <r>  -51.9626    1.0000 </r>
       <r>  -51.9502    1.0000 </r>
       <r>  -29.3673    1.0000 </r>
       <r>  -29.0448    1.0000 </r>
       <r>  -29.0099    1.0000 </r>
       <r>  -28.8642    1.0000 </r>
       <r>  -28.8051    1.0000 </r>
       <r>  -28.7818    1.0000 </r>
       <r>  -28.7250    1.0000 </r>
       <r>  -28.6747    1.0000 </r>
       <r>  -28.6184    1.0000 </r>
       <r>  -28.6089    1.0000 </r>
       <r>  -28.6004    1.0000 </r>
       <r>  -28.5188    1.0000 </r>
       <r>  -28.0760    1.0000 </r>
       <r>  -28.0702    1.0000 </r>
       <r>  -28.0641    1.0000 </r>
       <r>  -28.0252    1.0000 </r>
       <r>  -28.0247    1.0000 </r>
       <r>  -28.0143    1.0000 </r>
       <r>  -24.7518    1.0000 </r>
       <r>  -24.7440    1.0000 </r>
       <r>  -24.7377    1.0000 </r>
       <r>  -24.7307    1.0000 </r>
       <r>  -21.8522    1.0000 </r>
       <r>  -21.8124    1.0000 </r>
       <r>  -21.7851    1.0000 </r>
       <r>  -21.7503    1.0000 </r>
       <r>  -15.1360    1.0000 </r>
       <r>  -14.1868    1.0000 </r>
       <r>  -13.9688    1.0000 </r>
       <r>  -13.9346    1.0000 </r>
       <r>  -13.8610    1.0000 </r>
       <r>  -13.7908    1.0000 </r>
       <r>  -13.6726    1.0000 </r>
       <r>  -13.6106    1.0000 </r>
       <r>  -13.5128    1.0000 </r>
       <r>  -13.4652    1.0000 </r>
       <r>  -13.4159    1.0000 </r>
       <r>  -13.3916    1.0000 </r>
       <r>  -13.3177    1.0000 </r>
       <r>  -13.2917    1.0000 </r>
       <r>  -13.1213    1.0000 </r>
       <r>  -13.0718    1.0000 </r>
       <r>  -12.9350    1.0000 </r>
       <r>  -12.7963    1.0000 </r>
       <r>  -12.7192    1.0000 </r>
       <r>  -12.5388    1.0000 </r>
       <r>  -12.3801    1.0000 </r>
       <r>  -12.3020    1.0000 </r>
       <r>  -12.1867    1.0000 </r>
       <r>   -8.4020    1.0000 </r>
       <r>   -8.3791    1.0000 </r>
       <r>   -8.3289    1.0000 </r>
       <r>   -8.3122    1.0000 </r>
       <r>   -8.2843    1.0000 </r>
       <r>   -8.2781    1.0000 </r>
       <r>   -8.2736    1.0000 </r>
       <r>   -8.2600    1.0000 </r>
       <r>   -8.2391    1.0000 </r>
       <r>   -8.2273    1.0000 </r>
       <r>   -8.1984    1.0000 </r>
       <r>   -8.1944    1.0000 </r>
       <r>   -7.3844    1.0000 </r>
       <r>   -7.3275    1.0000 </r>
       <r>   -7.2908    1.0000 </r>
       <r>   -7.1129    1.0000 </r>
       <r>   -7.0734    1.0000 </r>
       <r>   -7.0337    1.0000 </r>
       <r>   -7.0195    1.0000 </r>
       <r>   -6.9424    1.0000 </r>
       <r>   -6.9178    1.0000 </r>
       <r>   -6.8959    1.0000 </r>
       <r>   -6.8697    1.0000 </r>
       <r>   -6.8113    1.0000 </r>
       <r>   -2.6682    1.0000 </r>
       <r>   -1.8048    1.0000 </r>
       <r>   -1.6369    1.0000 </r>
       <r>   -1.5132    1.0000 </r>
       <r>   -1.4785    1.0000 </r>
       <r>   -1.2915    1.0000 </r>
       <r>   -1.2466    1.0000 </r>
       <r>   -1.0809    1.0000 </r>
       <r>   -0.9490    1.0000 </r>
       <r>   -0.8968    1.0000 </r>
       <r>   -0.8247    1.0000 </r>
       <r>   -0.7892    1.0000 </r>
       <r>   -0.6981    1.0000 </r>
       <r>   -0.6603    1.0000 </r>
       <r>   -0.5498    1.0000 </r>
       <r>   -0.5105    1.0000 </r>
       <r>   -0.4814    1.0000 </r>
       <r>   -0.4472    1.0000 </r>
       <r>   -0.3807    1.0000 </r>
       <r>   -0.3315    1.0000 </r>
       <r>   -0.2916    1.0000 </r>
       <r>   -0.2725    1.0000 </r>
       <r>   -0.1999    1.0000 </r>
       <r>   -0.1427    1.0000 </r>
       <r>   -0.1188    1.0000 </r>
       <r>   -0.0512    1.0000 </r>
       <r>    0.0533    1.0000 </r>
       <r>    0.0994    1.0000 </r>
       <r>    0.1080    1.0000 </r>
       <r>    0.2034    1.0000 </r>
       <r>    0.2512    1.0000 </r>
       <r>    0.2751    1.0000 </r>
       <r>    0.3350    1.0000 </r>
       <r>    0.3599    1.0000 </r>
       <r>    0.4201    1.0000 </r>
       <r>    0.4631    1.0000 </r>
       <r>    0.4721    1.0000 </r>
       <r>    0.5553    1.0000 </r>
       <r>    0.6278    1.0000 </r>
       <r>    0.7003    1.0000 </r>
       <r>    0.7232    1.0000 </r>
       <r>    0.8287    1.0000 </r>
       <r>    0.8600    1.0000 </r>
       <r>    1.0040    1.0000 </r>
       <r>    1.0795    1.0000 </r>
       <r>    1.0966    1.0000 </r>
       <r>    1.2825    1.0000 </r>
       <r>    1.3564    1.0000 </r>
       <r>    1.3761    1.0000 </r>
       <r>    1.5107    1.0000 </r>
       <r>    1.5709    1.0000 </r>
       <r>    1.6633    1.0000 </r>
       <r>    1.7957    1.0000 </r>
       <r>    1.8828    1.0000 </r>
       <r>    1.9597    1.0000 </r>
       <r>    1.9871    1.0000 </r>
       <r>    2.0368    1.0000 </r>
       <r>    2.0870    1.0000 </r>
       <r>    2.1166    1.0000 </r>
       <r>    2.1887    1.0000 </r>
       <r>    2.1972    1.0000 </r>
       <r>    2.2555    1.0000 </r>
       <r>    2.2780    1.0000 </r>
       <r>    2.3453    1.0000 </r>
       <r>    2.4077    1.0000 </r>
       <r>    2.4471    1.0000 </r>
       <r>    2.4533    1.0000 </r>
       <r>    2.4766    1.0000 </r>
       <r>    2.5082    1.0000 </r>
       <r>    2.5375    1.0000 </r>
       <r>    2.5582    1.0000 </r>
       <r>    2.5850    1.0000 </r>
       <r>    2.7081    1.0000 </r>
       <r>    2.9558    1.0000 </r>
       <r>    3.0716    1.0000 </r>
       <r>    5.4762   -0.0000 </r>
       <r>    5.5573   -0.0000 </r>
       <r>    5.8212   -0.0000 </r>
       <r>    6.0445   -0.0000 </r>
       <r>    6.3446    0.0000 </r>
       <r>    6.3779    0.0000 </r>
       <r>    6.3850    0.0000 </r>
       <r>    6.4883    0.0000 </r>
       <r>    6.5298    0.0000 </r>
       <r>    6.6426    0.0000 </r>
       <r>    6.8604    0.0000 </r>
       <r>    6.9017    0.0000 </r>
       <r>    6.9131    0.0000 </r>
       <r>    6.9359    0.0000 </r>
       <r>    6.9840    0.0000 </r>
       <r>    7.0609    0.0000 </r>
       <r>    7.0913    0.0000 </r>
       <r>    7.1234    0.0000 </r>
       <r>    7.2073    0.0000 </r>
       <r>    7.2751    0.0000 </r>
       <r>    7.4724    0.0000 </r>
       <r>    7.6935    0.0000 </r>
       <r>    7.7434    0.0000 </r>
       <r>    8.0517    0.0000 </r>
       <r>    9.1735    0.0000 </r>
       <r>    9.2717    0.0000 </r>
       <r>    9.3937    0.0000 </r>
       <r>    9.5804    0.0000 </r>
       <r>    9.6908    0.0000 </r>
       <r>    9.7091    0.0000 </r>
       <r>    9.8788    0.0000 </r>
       <r>    9.9332    0.0000 </r>
       <r>   10.0300    0.0000 </r>
       <r>   10.0808    0.0000 </r>
       <r>   10.2648    0.0000 </r>
       <r>   10.3248    0.0000 </r>
       <r>   10.3891    0.0000 </r>
       <r>   10.4948    0.0000 </r>
       <r>   10.5867    0.0000 </r>
       <r>   10.6678    0.0000 </r>
       <r>   10.7488    0.0000 </r>
       <r>   10.7945    0.0000 </r>
       <r>   10.8558    0.0000 </r>
       <r>   10.9310    0.0000 </r>
       <r>   10.9912    0.0000 </r>
       <r>   11.0811    0.0000 </r>
       <r>   11.1666    0.0000 </r>
       <r>   11.2683    0.0000 </r>
       <r>   11.3892    0.0000 </r>
       <r>   11.4233    0.0000 </r>
       <r>   11.5198    0.0000 </r>
       <r>   11.5880    0.0000 </r>
       <r>   11.7024    0.0000 </r>
       <r>   11.7578    0.0000 </r>
      </set>
     </set>
    </set>
   </array>
  </eigenvalues>
  <separator name="orbital magnetization" >
   <v name="MAGDIPOLOUT">      0.00000000      0.00000000      0.00000000</v>
  </separator>
 </calculation>
 <structure name="finalpos" >
  <crystal>
   <varray name="basis" >
    <v>       8.10825078       0.00000000       0.00000000 </v>
    <v>       0.00000000       8.21462737       0.00000000 </v>
    <v>       0.00000000       0.00000000       8.40955387 </v>
   </varray>
   <i name="volume">    560.12892075 </i>
   <varray name="rec_basis" >
    <v>       0.12333116       0.00000000       0.00000000 </v>
    <v>       0.00000000       0.12173407       0.00000000 </v>
    <v>       0.00000000       0.00000000       0.11891237 </v>
   </varray>
  </crystal>
  <varray name="positions" >
   <v>       0.98942500       0.97732584       0.01751042 </v>
   <v>       0.51057500       0.52267416       0.01751042 </v>
   <v>       0.51057500       0.97732584       0.01751042 </v>
   <v>       0.98942500       0.52267416       0.01751042 </v>
   <v>       0.98989538       0.97608380       0.50693260 </v>
   <v>       0.51010462       0.52391620       0.50693260 </v>
   <v>       0.51010462       0.97608380       0.50693260 </v>
   <v>       0.98989538       0.52391620       0.50693260 </v>
   <v>       0.25000000       0.75000000       0.77296126 </v>
   <v>       0.75000000       0.75000000       0.27421847 </v>
   <v>       0.25000000       0.25000000       0.28801743 </v>
   <v>       0.25000000       0.25000000       0.74284111 </v>
   <v>       0.25000000       0.75000000       0.27426600 </v>
   <v>       0.75000000       0.25000000       0.24582578 </v>
   <v>       0.75000000       0.25000000       0.73453733 </v>
   <v>       0.75000000       0.75000000       0.75043833 </v>
   <v>       0.25000000       0.25000000       0.51123125 </v>
   <v>       0.25000000       0.75000000       0.02888150 </v>
   <v>       0.75000000       0.25000000       0.01424966 </v>
   <v>       0.25000000       0.75000000       0.50324624 </v>
   <v>       0.75000000       0.25000000       0.50991937 </v>
   <v>       0.75000000       0.75000000       0.99901495 </v>
   <v>       0.75000000       0.75000000       0.52497545 </v>
   <v>       0.25000000       0.01298045       0.25699972 </v>
   <v>       0.25000000       0.48701955       0.25699972 </v>
   <v>       0.48726527       0.25000000       0.23532543 </v>
   <v>       0.01273473       0.25000000       0.23532543 </v>
   <v>       0.25000000       0.04597518       0.83798902 </v>
   <v>       0.25000000       0.45402482       0.83798902 </v>
   <v>       0.50041844       0.25000000       0.75126690 </v>
   <v>       0.99958156       0.25000000       0.75126690 </v>
   <v>       0.75000000       0.01609974       0.26366922 </v>
   <v>       0.75000000       0.48390026       0.26366922 </v>
   <v>       0.49189142       0.75000000       0.26001628 </v>
   <v>       0.00810858       0.75000000       0.26001628 </v>
   <v>       0.75000000       0.00807536       0.76342888 </v>
   <v>       0.75000000       0.49192464       0.76342888 </v>
   <v>       0.50488127       0.75000000       0.76833493 </v>
   <v>       0.99511873       0.75000000       0.76833493 </v>
  </varray>
 </structure>
</modeling>
