       N       E                     dE             d eps       ncg     rms          rms(c)
DAV:   1     0.342081297979E+04    0.34208E+04   -0.17319E+05 17776   0.150E+03
DAV:   2     0.651648129851E+02   -0.33556E+04   -0.31469E+04 20428   0.503E+02
DAV:   3    -0.309483711302E+03   -0.37465E+03   -0.36970E+03 25888   0.161E+02
DAV:   4    -0.328671715626E+03   -0.19188E+02   -0.19068E+02 26920   0.351E+01
DAV:   5    -0.329941146644E+03   -0.12694E+01   -0.12681E+01 30760   0.860E+00    0.629E+01
DAV:   6    -0.270468004692E+03    0.59473E+02   -0.36895E+02 24336   0.577E+01    0.434E+01
DAV:   7    -0.272867183701E+03   -0.23992E+01   -0.55529E+01 25744   0.365E+01    0.241E+01
DAV:   8    -0.275185288145E+03   -0.23181E+01   -0.39947E+01 24400   0.231E+01    0.266E+01
DAV:   9    -0.273124781525E+03    0.20605E+01   -0.64661E+00 23928   0.171E+01    0.118E+01
DAV:  10    -0.273390874087E+03   -0.26609E+00   -0.30504E+00 26608   0.932E+00    0.601E+00
DAV:  11    -0.273552798698E+03   -0.16192E+00   -0.10344E+00 24512   0.445E+00    0.586E+00
DAV:  12    -0.273609679583E+03   -0.56881E-01   -0.33492E-01 24296   0.291E+00    0.275E+00
DAV:  13    -0.273620447077E+03   -0.10767E-01   -0.14787E-01 24912   0.200E+00    0.145E+00
DAV:  14    -0.273637939850E+03   -0.17493E-01   -0.69801E-02 22672   0.121E+00    0.125E+00
DAV:  15    -0.273637963025E+03   -0.23175E-04   -0.36164E-02 23080   0.657E-01    0.597E-01
DAV:  16    -0.273642368477E+03   -0.44055E-02   -0.12251E-02 22304   0.435E-01    0.422E-01
DAV:  17    -0.273643953695E+03   -0.15852E-02   -0.52505E-03 25008   0.276E-01    0.271E-01
DAV:  18    -0.273644512993E+03   -0.55930E-03   -0.18617E-03 23328   0.135E-01    0.186E-01
DAV:  19    -0.273644681572E+03   -0.16858E-03   -0.40368E-04 25464   0.784E-02    0.826E-02
DAV:  20    -0.273644769942E+03   -0.88369E-04   -0.15800E-04 25056   0.510E-02    0.566E-02
DAV:  21    -0.273644816848E+03   -0.46906E-04   -0.51637E-05 24272   0.333E-02    0.290E-02
DAV:  22    -0.273644849414E+03   -0.32566E-04   -0.28556E-05 23752   0.214E-02    0.210E-02
DAV:  23    -0.273644866447E+03   -0.17033E-04   -0.12758E-05 20856   0.146E-02    0.157E-02
DAV:  24    -0.273644883122E+03   -0.16674E-04   -0.10276E-05 20744   0.148E-02    0.153E-02
DAV:  25    -0.273644895247E+03   -0.12125E-04   -0.10522E-05 19776   0.148E-02    0.104E-02
DAV:  26    -0.273644902626E+03   -0.73787E-05   -0.61886E-06 16960   0.972E-03    0.856E-03
DAV:  27    -0.273644907936E+03   -0.53105E-05   -0.37314E-06 16632   0.972E-03    0.631E-03
DAV:  28    -0.273644911244E+03   -0.33081E-05   -0.44437E-06 15528   0.729E-03    0.496E-03
DAV:  29    -0.273644913076E+03   -0.18319E-05   -0.15881E-06 13792   0.584E-03    0.346E-03
DAV:  30    -0.273644914097E+03   -0.10206E-05   -0.15957E-06 13008   0.435E-03    0.283E-03
DAV:  31    -0.273644914579E+03   -0.48202E-06   -0.82008E-07 11752   0.258E-03
   1 F= -.27364491E+03 E0= -.27364264E+03  d E =-.273645E+03  mag=     2.4921
       N       E                     dE             d eps       ncg     rms          rms(c)
DAV:   1    -0.259386504939E+03    0.14258E+02   -0.16785E+03 21196   0.127E+02    0.276E+01
DAV:   2    -0.278601344052E+03   -0.19215E+02   -0.22035E+02 21182   0.416E+01    0.184E+01
DAV:   3    -0.278842789995E+03   -0.24145E+00   -0.12077E+01 25568   0.141E+01    0.876E+00
DAV:   4    -0.278609119643E+03    0.23367E+00   -0.18435E+00 26032   0.359E+00    0.614E+00
DAV:   5    -0.278411441268E+03    0.19768E+00   -0.49879E-01 25072   0.236E+00    0.337E+00
DAV:   6    -0.278393373256E+03    0.18068E-01   -0.28590E-01 29144   0.219E+00    0.119E+00
DAV:   7    -0.278395932027E+03   -0.25588E-02   -0.43859E-02 24432   0.610E-01    0.911E-01
DAV:   8    -0.278398224808E+03   -0.22928E-02   -0.11201E-02 25536   0.315E-01    0.347E-01
DAV:   9    -0.278398547279E+03   -0.32247E-03   -0.23150E-03 25864   0.268E-01    0.102E-01
DAV:  10    -0.278398642274E+03   -0.94995E-04   -0.79556E-04 25192   0.827E-02    0.632E-02
DAV:  11    -0.278398688986E+03   -0.46712E-04   -0.11547E-04 25104   0.353E-02    0.446E-02
DAV:  12    -0.278398714265E+03   -0.25279E-04   -0.43914E-05 20856   0.232E-02    0.263E-02
DAV:  13    -0.278398721908E+03   -0.76427E-05   -0.98752E-06 21144   0.145E-02    0.127E-02
DAV:  14    -0.278398727430E+03   -0.55219E-05   -0.49187E-06 18280   0.710E-03    0.808E-03
DAV:  15    -0.278398731220E+03   -0.37902E-05   -0.12717E-06 15088   0.565E-03    0.688E-03
DAV:  16    -0.278398735306E+03   -0.40858E-05   -0.18105E-06 15472   0.659E-03    0.584E-03
DAV:  17    -0.278398737876E+03   -0.25701E-05   -0.16030E-06 15360   0.529E-03    0.528E-03
DAV:  18    -0.278398740273E+03   -0.23974E-05   -0.10807E-06 14184   0.619E-03    0.488E-03
DAV:  19    -0.278398742167E+03   -0.18935E-05   -0.33255E-06 16736   0.905E-03    0.491E-03
DAV:  20    -0.278398742960E+03   -0.79365E-06   -0.46003E-06 17600   0.115E-02
   2 F= -.27839874E+03 E0= -.27839917E+03  d E =-.475383E+01  mag=     3.9952
       N       E                     dE             d eps       ncg     rms          rms(c)
DAV:   1    -0.274277723774E+03    0.41210E+01   -0.43902E+02 19408   0.571E+01    0.133E+01
DAV:   2    -0.278307941923E+03   -0.40302E+01   -0.52566E+01 21040   0.246E+01    0.144E+01
DAV:   3    -0.278388450369E+03   -0.80508E-01   -0.32768E+00 24288   0.842E+00    0.533E+00
DAV:   4    -0.278307216782E+03    0.81234E-01   -0.50446E-01 25480   0.203E+00    0.361E+00
DAV:   5    -0.278262373584E+03    0.44843E-01   -0.20084E-01 25776   0.177E+00    0.145E+00
DAV:   6    -0.278264977690E+03   -0.26041E-02   -0.54054E-02 24456   0.104E+00    0.670E-01
DAV:   7    -0.278266054429E+03   -0.10767E-02   -0.11871E-02 30760   0.313E-01    0.385E-01
DAV:   8    -0.278266175007E+03   -0.12058E-03   -0.15763E-03 24704   0.153E-01    0.177E-01
DAV:   9    -0.278266184079E+03   -0.90729E-05   -0.39217E-04 23712   0.787E-02    0.451E-02
DAV:  10    -0.278266188603E+03   -0.45236E-05   -0.84220E-05 25912   0.343E-02    0.255E-02
DAV:  11    -0.278266190115E+03   -0.15116E-05   -0.14473E-05 24536   0.131E-02    0.137E-02
DAV:  12    -0.278266190753E+03   -0.63830E-06   -0.35439E-06 17856   0.674E-03
   3 F= -.27826619E+03 E0= -.27826708E+03  d E =0.132552E+00  mag=     4.0162
       N       E                     dE             d eps       ncg     rms          rms(c)
DAV:   1    -0.278606039366E+03   -0.33985E+00   -0.12484E+02 18556   0.352E+01    0.650E+00
DAV:   2    -0.279401276884E+03   -0.79524E+00   -0.11880E+01 19616   0.133E+01    0.663E+00
DAV:   3    -0.279436698480E+03   -0.35422E-01   -0.93159E-01 24912   0.455E+00    0.200E+00
DAV:   4    -0.279417635166E+03    0.19063E-01   -0.15167E-01 26920   0.123E+00    0.102E+00
DAV:   5    -0.279409609760E+03    0.80254E-02   -0.27866E-02 27304   0.574E-01    0.489E-01
DAV:   6    -0.279409931324E+03   -0.32156E-03   -0.96707E-03 27288   0.320E-01    0.244E-01
DAV:   7    -0.279410237064E+03   -0.30574E-03   -0.18153E-03 28448   0.156E-01    0.155E-01
DAV:   8    -0.279410365026E+03   -0.12796E-03   -0.30750E-04 24448   0.614E-02    0.664E-02
DAV:   9    -0.279410418607E+03   -0.53582E-04   -0.83294E-05 26440   0.308E-02    0.262E-02
DAV:  10    -0.279410431049E+03   -0.12442E-04   -0.18593E-05 23920   0.165E-02    0.137E-02
DAV:  11    -0.279410437124E+03   -0.60746E-05   -0.64590E-06 19656   0.103E-02    0.105E-02
DAV:  12    -0.279410440333E+03   -0.32095E-05   -0.19390E-06 15552   0.653E-03    0.775E-03
DAV:  13    -0.279410443336E+03   -0.30031E-05   -0.13161E-06 14168   0.605E-03    0.604E-03
DAV:  14    -0.279410446428E+03   -0.30912E-05   -0.20497E-06 15464   0.669E-03    0.541E-03
DAV:  15    -0.279410449214E+03   -0.27863E-05   -0.23011E-06 15272   0.773E-03    0.495E-03
DAV:  16    -0.279410448731E+03    0.48328E-06   -0.65992E-06 17800   0.141E-02
   4 F= -.27941045E+03 E0= -.27941145E+03  d E =-.114426E+01  mag=     4.0237
       N       E                     dE             d eps       ncg     rms          rms(c)
DAV:   1    -0.278802492823E+03    0.60796E+00   -0.14450E+02 20264   0.369E+01    0.114E+01
DAV:   2    -0.279352583023E+03   -0.55009E+00   -0.16675E+01 19592   0.187E+01    0.117E+01
DAV:   3    -0.279316990848E+03    0.35592E-01   -0.12452E+00 23640   0.636E+00    0.347E+00
DAV:   4    -0.279260510278E+03    0.56481E-01   -0.31898E-01 27496   0.178E+00    0.226E+00
DAV:   5    -0.279238116170E+03    0.22394E-01   -0.11271E-01 26072   0.103E+00    0.144E+00
DAV:   6    -0.279239573416E+03   -0.14572E-02   -0.29730E-02 28928   0.547E-01    0.669E-01
DAV:   7    -0.279240252044E+03   -0.67863E-03   -0.45112E-03 29800   0.226E-01    0.422E-01
DAV:   8    -0.279240487497E+03   -0.23545E-03   -0.11941E-03 25992   0.138E-01    0.212E-01
DAV:   9    -0.279240483342E+03    0.41549E-05   -0.32839E-04 26824   0.822E-02    0.495E-02
DAV:  10    -0.279240487221E+03   -0.38789E-05   -0.11007E-04 26992   0.309E-02    0.275E-02
DAV:  11    -0.279240486546E+03    0.67544E-06   -0.16277E-05 24776   0.170E-02    0.128E-02
DAV:  12    -0.279240487222E+03   -0.67667E-06   -0.40361E-06 18176   0.940E-03
   5 F= -.27924049E+03 E0= -.27924133E+03  d E =0.169962E+00  mag=     4.0036
       N       E                     dE             d eps       ncg     rms          rms(c)
DAV:   1    -0.279533025092E+03   -0.29254E+00   -0.61153E+01 17970   0.224E+01    0.615E+00
DAV:   2    -0.279655121663E+03   -0.12210E+00   -0.62021E+00 20344   0.118E+01    0.668E+00
DAV:   3    -0.279647470538E+03    0.76511E-02   -0.54412E-01 23144   0.377E+00    0.226E+00
DAV:   4    -0.279623477113E+03    0.23993E-01   -0.15724E-01 26512   0.117E+00    0.144E+00
DAV:   5    -0.279617948724E+03    0.55284E-02   -0.39752E-02 26256   0.730E-01    0.944E-01
DAV:   6    -0.279618955755E+03   -0.10070E-02   -0.11734E-02 28544   0.357E-01    0.398E-01
DAV:   7    -0.279619310897E+03   -0.35514E-03   -0.18111E-03 28432   0.145E-01    0.185E-01
DAV:   8    -0.279619445376E+03   -0.13448E-03   -0.37968E-04 26056   0.648E-02    0.814E-02
DAV:   9    -0.279619465941E+03   -0.20565E-04   -0.85299E-05 26000   0.398E-02    0.279E-02
DAV:  10    -0.279619467159E+03   -0.12181E-05   -0.21270E-05 24136   0.182E-02    0.187E-02
DAV:  11    -0.279619468628E+03   -0.14695E-05   -0.31012E-06 16304   0.796E-03    0.612E-03
DAV:  12    -0.279619468348E+03    0.28059E-06   -0.10729E-06 12472   0.438E-03
   6 F= -.27961947E+03 E0= -.27962035E+03  d E =-.378981E+00  mag=     4.0082
       N       E                     dE             d eps       ncg     rms          rms(c)
DAV:   1    -0.279599335218E+03    0.20133E-01   -0.99829E+00 17766   0.113E+01    0.156E+00
DAV:   2    -0.279656692254E+03   -0.57357E-01   -0.84636E-01 19568   0.371E+00    0.176E+00
DAV:   3    -0.279660852849E+03   -0.41606E-02   -0.73211E-02 24048   0.125E+00    0.601E-01
DAV:   4    -0.279659407415E+03    0.14454E-02   -0.12546E-02 27424   0.401E-01    0.346E-01
DAV:   5    -0.279658633271E+03    0.77414E-03   -0.32323E-03 23936   0.212E-01    0.172E-01
DAV:   6    -0.279658703721E+03   -0.70450E-04   -0.10842E-03 27552   0.111E-01    0.997E-02
DAV:   7    -0.279658745882E+03   -0.42161E-04   -0.18225E-04 27952   0.406E-02    0.498E-02
DAV:   8    -0.279658762792E+03   -0.16910E-04   -0.35990E-05 25368   0.219E-02    0.267E-02
DAV:   9    -0.279658776040E+03   -0.13248E-04   -0.12077E-05 20600   0.125E-02    0.737E-03
DAV:  10    -0.279658776873E+03   -0.83252E-06   -0.47013E-06 18784   0.698E-03
   7 F= -.27965878E+03 E0= -.27965967E+03  d E =-.393085E-01  mag=     3.9977
       N       E                     dE             d eps       ncg     rms          rms(c)
DAV:   1    -0.279672477061E+03   -0.13701E-01   -0.27830E+00 19134   0.598E+00    0.157E+00
DAV:   2    -0.279679151035E+03   -0.66740E-02   -0.32241E-01 19320   0.307E+00    0.171E+00
DAV:   3    -0.279679340251E+03   -0.18922E-03   -0.34039E-02 23160   0.983E-01    0.412E-01
DAV:   4    -0.279678149025E+03    0.11912E-02   -0.82256E-03 27288   0.293E-01    0.281E-01
DAV:   5    -0.279677659253E+03    0.48977E-03   -0.21719E-03 26496   0.180E-01    0.198E-01
DAV:   6    -0.279677648003E+03    0.11250E-04   -0.61311E-04 29696   0.879E-02    0.103E-01
DAV:   7    -0.279677655730E+03   -0.77268E-05   -0.10315E-04 29144   0.274E-02    0.567E-02
DAV:   8    -0.279677652856E+03    0.28739E-05   -0.28287E-05 28424   0.177E-02    0.293E-02
DAV:   9    -0.279677645490E+03    0.73661E-05   -0.12956E-05 23944   0.149E-02    0.544E-03
DAV:  10    -0.279677644790E+03    0.69993E-06   -0.33557E-06 17240   0.614E-03
   8 F= -.27967764E+03 E0= -.27967852E+03  d E =-.188679E-01  mag=     4.0010
       N       E                     dE             d eps       ncg     rms          rms(c)
DAV:   1    -0.279682868015E+03   -0.52225E-02   -0.45532E+00 18080   0.581E+00    0.654E-01
DAV:   2    -0.279697309186E+03   -0.14441E-01   -0.19271E-01 19468   0.165E+00    0.710E-01
DAV:   3    -0.279697956025E+03   -0.64684E-03   -0.14595E-02 23920   0.552E-01    0.262E-01
DAV:   4    -0.279697568483E+03    0.38754E-03   -0.22455E-03 27696   0.164E-01    0.153E-01
DAV:   5    -0.279697341940E+03    0.22654E-03   -0.71785E-04 23248   0.950E-02    0.570E-02
DAV:   6    -0.279697366619E+03   -0.24679E-04   -0.22868E-04 25512   0.454E-02    0.304E-02
DAV:   7    -0.279697371771E+03   -0.51517E-05   -0.32171E-05 28312   0.202E-02    0.205E-02
DAV:   8    -0.279697375265E+03   -0.34948E-05   -0.47173E-06 19864   0.940E-03    0.124E-02
DAV:   9    -0.279697378596E+03   -0.33307E-05   -0.16361E-06 13424   0.546E-03    0.553E-03
DAV:  10    -0.279697379500E+03   -0.90346E-06   -0.74381E-07 11832   0.407E-03
   9 F= -.27969738E+03 E0= -.27969825E+03  d E =-.197347E-01  mag=     3.9969
       N       E                     dE             d eps       ncg     rms          rms(c)
DAV:   1    -0.279691812434E+03    0.55662E-02   -0.46457E+00 18080   0.598E+00    0.811E-01
DAV:   2    -0.279707375824E+03   -0.15563E-01   -0.21817E-01 19312   0.187E+00    0.905E-01
DAV:   3    -0.279707998038E+03   -0.62221E-03   -0.16309E-02 24160   0.614E-01    0.269E-01
DAV:   4    -0.279707613666E+03    0.38437E-03   -0.31065E-03 26840   0.171E-01    0.186E-01
DAV:   5    -0.279707409903E+03    0.20376E-03   -0.78101E-04 24888   0.901E-02    0.906E-02
DAV:   6    -0.279707425959E+03   -0.16056E-04   -0.29003E-04 27696   0.477E-02    0.500E-02
DAV:   7    -0.279707425310E+03    0.64947E-06   -0.38737E-05 29104   0.216E-02    0.334E-02
DAV:   8    -0.279707421251E+03    0.40593E-05   -0.77966E-06 22184   0.113E-02    0.155E-02
DAV:   9    -0.279707418979E+03    0.22714E-05   -0.17433E-06 15464   0.647E-03    0.592E-03
DAV:  10    -0.279707419090E+03   -0.11085E-06   -0.95196E-07 12856   0.492E-03
  10 F= -.27970742E+03 E0= -.27970829E+03  d E =-.100396E-01  mag=     3.9926
       N       E                     dE             d eps       ncg     rms          rms(c)
DAV:   1    -0.279708373907E+03   -0.95493E-03   -0.74996E-01 17932   0.200E+00    0.339E-01
DAV:   2    -0.279711745819E+03   -0.33719E-02   -0.44296E-02 21880   0.625E-01    0.289E-01
DAV:   3    -0.279711622155E+03    0.12366E-03   -0.22343E-03 24408   0.200E-01    0.186E-01
DAV:   4    -0.279711512909E+03    0.10925E-03   -0.78443E-04 25992   0.829E-02    0.909E-02
DAV:   5    -0.279711465470E+03    0.47440E-04   -0.13965E-04 22632   0.459E-02    0.295E-02
DAV:   6    -0.279711469156E+03   -0.36859E-05   -0.68163E-05 24088   0.241E-02    0.200E-02
DAV:   7    -0.279711468325E+03    0.83065E-06   -0.76306E-06 20208   0.116E-02
  11 F= -.27971147E+03 E0= -.27971234E+03  d E =-.404924E-02  mag=     3.9950
       N       E                     dE             d eps       ncg     rms          rms(c)
DAV:   1    -0.279714849857E+03   -0.33807E-02   -0.35347E-01 19682   0.204E+00    0.698E-01
DAV:   2    -0.279714079175E+03    0.77068E-03   -0.43372E-02 19780   0.133E+00    0.717E-01
DAV:   3    -0.279713871760E+03    0.20741E-03   -0.40287E-03 22672   0.377E-01    0.169E-01
DAV:   4    -0.279713673641E+03    0.19812E-03   -0.12450E-03 28376   0.121E-01    0.100E-01
DAV:   5    -0.279713623923E+03    0.49718E-04   -0.39898E-04 26552   0.667E-02    0.757E-02
DAV:   6    -0.279713639934E+03   -0.16011E-04   -0.84734E-05 28072   0.295E-02    0.342E-02
DAV:   7    -0.279713652283E+03   -0.12349E-04   -0.16636E-05 28448   0.119E-02    0.191E-02
DAV:   8    -0.279713659538E+03   -0.72552E-05   -0.30644E-06 16792   0.605E-03    0.977E-03
DAV:   9    -0.279713663004E+03   -0.34655E-05   -0.10539E-06 11800   0.502E-03    0.353E-03
DAV:  10    -0.279713663714E+03   -0.71052E-06   -0.67521E-07 11072   0.326E-03
  12 F= -.27971366E+03 E0= -.27971454E+03  d E =-.219539E-02  mag=     3.9939
       N       E                     dE             d eps       ncg     rms          rms(c)
DAV:   1    -0.279715701111E+03   -0.20381E-02   -0.47026E-01 18250   0.199E+00    0.376E-01
DAV:   2    -0.279716867787E+03   -0.11667E-02   -0.25063E-02 19208   0.799E-01    0.424E-01
DAV:   3    -0.279716940646E+03   -0.72859E-04   -0.25215E-03 24832   0.254E-01    0.955E-02
DAV:   4    -0.279716880467E+03    0.60180E-04   -0.52346E-04 27528   0.678E-02    0.678E-02
DAV:   5    -0.279716850939E+03    0.29527E-04   -0.13025E-04 27448   0.367E-02    0.411E-02
DAV:   6    -0.279716849747E+03    0.11924E-05   -0.33123E-05 30376   0.200E-02    0.238E-02
DAV:   7    -0.279716848081E+03    0.16656E-05   -0.36851E-06 17976   0.720E-03    0.146E-02
DAV:   8    -0.279716845909E+03    0.21720E-05   -0.12161E-06 12992   0.447E-03    0.665E-03
DAV:   9    -0.279716844698E+03    0.12109E-05   -0.94252E-07 11968   0.459E-03    0.285E-03
DAV:  10    -0.279716844585E+03    0.11340E-06   -0.59465E-07 10912   0.319E-03
  13 F= -.27971684E+03 E0= -.27971771E+03  d E =-.318087E-02  mag=     3.9941
       N       E                     dE             d eps       ncg     rms          rms(c)
DAV:   1    -0.279717956903E+03   -0.11122E-02   -0.52278E-01 18080   0.199E+00    0.146E-01
DAV:   2    -0.279719929520E+03   -0.19726E-02   -0.21600E-02 20138   0.463E-01    0.805E-02
DAV:   3    -0.279719955126E+03   -0.25606E-04   -0.79695E-04 27864   0.841E-02    0.534E-02
DAV:   4    -0.279719935852E+03    0.19273E-04   -0.74862E-05 25968   0.350E-02    0.371E-02
DAV:   5    -0.279719932589E+03    0.32638E-05   -0.27112E-05 23960   0.208E-02    0.113E-02
DAV:   6    -0.279719934155E+03   -0.15660E-05   -0.98327E-06 24504   0.973E-03    0.646E-03
DAV:   7    -0.279719934527E+03   -0.37260E-06   -0.96504E-07 12568   0.502E-03
  14 F= -.27971993E+03 E0= -.27972080E+03  d E =-.308994E-02  mag=     3.9943
       N       E                     dE             d eps       ncg     rms          rms(c)
DAV:   1    -0.279720644423E+03   -0.71027E-03   -0.33509E-01 18080   0.171E+00    0.134E-01
DAV:   2    -0.279722044769E+03   -0.14003E-02   -0.15618E-02 19832   0.415E-01    0.102E-01
DAV:   3    -0.279722080909E+03   -0.36140E-04   -0.71338E-04 24600   0.106E-01    0.673E-02
DAV:   4    -0.279722072697E+03    0.82123E-05   -0.98514E-05 29720   0.376E-02    0.366E-02
DAV:   5    -0.279722064360E+03    0.83369E-05   -0.34413E-05 23432   0.265E-02    0.143E-02
DAV:   6    -0.279722066579E+03   -0.22187E-05   -0.13880E-05 22552   0.163E-02    0.931E-03
DAV:   7    -0.279722067197E+03   -0.61810E-06   -0.17626E-06 15144   0.541E-03
  15 F= -.27972207E+03 E0= -.27972293E+03  d E =-.213267E-02  mag=     3.9942
       N       E                     dE             d eps       ncg     rms          rms(c)
DAV:   1    -0.279719030757E+03    0.30358E-02   -0.15028E+00 18080   0.372E+00    0.401E-01
DAV:   2    -0.279725162614E+03   -0.61319E-02   -0.75137E-02 19198   0.107E+00    0.451E-01
DAV:   3    -0.279725470093E+03   -0.30748E-03   -0.54211E-03 24936   0.343E-01    0.144E-01
DAV:   4    -0.279725402101E+03    0.67993E-04   -0.87170E-04 29016   0.101E-01    0.961E-02
DAV:   5    -0.279725338357E+03    0.63744E-04   -0.23668E-04 22968   0.549E-02    0.358E-02
DAV:   6    -0.279725346419E+03   -0.80621E-05   -0.86594E-05 26864   0.232E-02    0.190E-02
DAV:   7    -0.279725345654E+03    0.76538E-06   -0.92470E-06 23736   0.102E-02
  16 F= -.27972535E+03 E0= -.27972621E+03  d E =-.327846E-02  mag=     3.9954
       N       E                     dE             d eps       ncg     rms          rms(c)
DAV:   1    -0.279725438198E+03   -0.91779E-04   -0.81110E-02 18734   0.107E+00    0.295E-01
DAV:   2    -0.279725497976E+03   -0.59777E-04   -0.97394E-03 19528   0.568E-01    0.303E-01
DAV:   3    -0.279725504146E+03   -0.61702E-05   -0.10527E-03 23080   0.170E-01    0.704E-02
DAV:   4    -0.279725466973E+03    0.37173E-04   -0.27474E-04 26528   0.497E-02    0.457E-02
DAV:   5    -0.279725457559E+03    0.94141E-05   -0.64014E-05 27144   0.273E-02    0.307E-02
DAV:   6    -0.279725461627E+03   -0.40685E-05   -0.15672E-05 28600   0.143E-02    0.177E-02
DAV:   7    -0.279725465241E+03   -0.36140E-05   -0.17714E-06 14248   0.583E-03    0.947E-03
DAV:   8    -0.279725468301E+03   -0.30593E-05   -0.11726E-06 12280   0.412E-03    0.484E-03
DAV:   9    -0.279725470086E+03   -0.17857E-05   -0.86988E-07 11440   0.402E-03    0.271E-03
DAV:  10    -0.279725470716E+03   -0.62923E-06   -0.48149E-07 10896   0.298E-03
  17 F= -.27972547E+03 E0= -.27972634E+03  d E =-.125062E-03  mag=     3.9939
       N       E                     dE             d eps       ncg     rms          rms(c)
DAV:   1    -0.279725542943E+03   -0.72856E-04   -0.27643E-01 18080   0.160E+00    0.132E-01
DAV:   2    -0.279726697926E+03   -0.11550E-02   -0.13403E-02 19542   0.396E-01    0.124E-01
DAV:   3    -0.279726724883E+03   -0.26957E-04   -0.64143E-04 25984   0.109E-01    0.586E-02
DAV:   4    -0.279726707984E+03    0.16900E-04   -0.11140E-04 28584   0.390E-02    0.356E-02
DAV:   5    -0.279726695833E+03    0.12151E-04   -0.42716E-05 23424   0.241E-02    0.144E-02
DAV:   6    -0.279726696524E+03   -0.69131E-06   -0.13932E-05 25584   0.118E-02    0.710E-03
DAV:   7    -0.279726696168E+03    0.35612E-06   -0.13854E-06 13680   0.453E-03
  18 F= -.27972670E+03 E0= -.27972756E+03  d E =-.122545E-02  mag=     3.9938
       N       E                     dE             d eps       ncg     rms          rms(c)
DAV:   1    -0.279726974156E+03   -0.27763E-03   -0.53682E-02 18122   0.624E-01    0.596E-02
DAV:   2    -0.279727204599E+03   -0.23044E-03   -0.26820E-03 20880   0.163E-01    0.530E-02
DAV:   3    -0.279727204859E+03   -0.25933E-06   -0.11013E-04 25562   0.448E-02    0.326E-02
DAV:   4    -0.279727201568E+03    0.32904E-05   -0.23401E-05 26984   0.162E-02    0.176E-02
DAV:   5    -0.279727199638E+03    0.19302E-05   -0.61488E-06 21410   0.110E-02    0.643E-03
DAV:   6    -0.279727199999E+03   -0.36111E-06   -0.29338E-06 16952   0.683E-03
  19 F= -.27972720E+03 E0= -.27972806E+03  d E =-.503832E-03  mag=     3.9940
       N       E                     dE             d eps       ncg     rms          rms(c)
DAV:   1    -0.279727163020E+03    0.36619E-04   -0.38310E-01 18040   0.168E+00    0.111E-01
DAV:   2    -0.279728522154E+03   -0.13591E-02   -0.14454E-02 20344   0.368E-01    0.630E-02
DAV:   3    -0.279728529671E+03   -0.75172E-05   -0.43502E-04 28608   0.665E-02    0.457E-02
DAV:   4    -0.279728519164E+03    0.10507E-04   -0.41223E-05 27248   0.262E-02    0.296E-02
DAV:   5    -0.279728515072E+03    0.40917E-05   -0.24064E-05 22232   0.180E-02    0.854E-03
DAV:   6    -0.279728516359E+03   -0.12863E-05   -0.81849E-06 21664   0.119E-02    0.593E-03
DAV:   7    -0.279728516748E+03   -0.38979E-06   -0.10365E-06 12880   0.537E-03
  20 F= -.27972852E+03 E0= -.27972938E+03  d E =-.131675E-02  mag=     3.9937
       N       E                     dE             d eps       ncg     rms          rms(c)
DAV:   1    -0.279728637689E+03   -0.12133E-03   -0.10075E-01 18086   0.959E-01    0.107E-01
DAV:   2    -0.279729076382E+03   -0.43869E-03   -0.55735E-03 19556   0.284E-01    0.118E-01
DAV:   3    -0.279729092329E+03   -0.15947E-04   -0.36609E-04 24642   0.906E-02    0.414E-02
DAV:   4    -0.279729085448E+03    0.68809E-05   -0.68488E-05 29000   0.276E-02    0.264E-02
DAV:   5    -0.279729080415E+03    0.50326E-05   -0.17695E-05 23616   0.157E-02    0.105E-02
DAV:   6    -0.279729080383E+03    0.31829E-07   -0.66806E-06 21968   0.699E-03
  21 F= -.27972908E+03 E0= -.27972994E+03  d E =-.563635E-03  mag=     3.9940
       N       E                     dE             d eps       ncg     rms          rms(c)
DAV:   1    -0.279721799576E+03    0.72808E-02   -0.24478E+00 18080   0.423E+00    0.288E-01
DAV:   2    -0.279731381158E+03   -0.95816E-02   -0.10158E-01 19914   0.947E-01    0.157E-01
DAV:   3    -0.279731427375E+03   -0.46217E-04   -0.28206E-03 28752   0.165E-01    0.111E-01
DAV:   4    -0.279731357218E+03    0.70157E-04   -0.28663E-04 26496   0.636E-02    0.710E-02
DAV:   5    -0.279731337769E+03    0.19449E-04   -0.13093E-04 23496   0.422E-02    0.189E-02
DAV:   6    -0.279731344865E+03   -0.70958E-05   -0.46231E-05 24864   0.258E-02    0.127E-02
DAV:   7    -0.279731347086E+03   -0.22212E-05   -0.53491E-06 19992   0.109E-02    0.858E-03
DAV:   8    -0.279731349297E+03   -0.22111E-05   -0.14275E-06 13936   0.586E-03    0.623E-03
DAV:   9    -0.279731350958E+03   -0.16610E-05   -0.11791E-06 12896   0.431E-03    0.485E-03
DAV:  10    -0.279731352425E+03   -0.14669E-05   -0.51142E-07 11320   0.363E-03    0.430E-03
DAV:  11    -0.279731354103E+03   -0.16779E-05   -0.61619E-07 12648   0.479E-03    0.392E-03
DAV:  12    -0.279731355157E+03   -0.10543E-05   -0.35035E-06 15920   0.850E-03    0.400E-03
DAV:  13    -0.279731355043E+03    0.11444E-06   -0.39645E-06 16528   0.100E-02
  22 F= -.27973136E+03 E0= -.27973222E+03  d E =-.227466E-02  mag=     3.9933
       N       E                     dE             d eps       ncg     rms          rms(c)
DAV:   1    -0.279731442943E+03   -0.87786E-04   -0.56851E-02 17802   0.707E-01    0.111E-01
DAV:   2    -0.279731622590E+03   -0.17965E-03   -0.30708E-03 19320   0.242E-01    0.123E-01
DAV:   3    -0.279731626482E+03   -0.38921E-05   -0.24801E-04 24870   0.793E-02    0.362E-02
DAV:   4    -0.279731616165E+03    0.10317E-04   -0.56430E-05 26256   0.237E-02    0.214E-02
DAV:   5    -0.279731612224E+03    0.39407E-05   -0.14491E-05 27664   0.125E-02    0.121E-02
DAV:   6    -0.279731611355E+03    0.86955E-06   -0.24567E-06 16304   0.587E-03
  23 F= -.27973161E+03 E0= -.27973247E+03  d E =-.256312E-03  mag=     3.9932
       N       E                     dE             d eps       ncg     rms          rms(c)
DAV:   1    -0.279730542611E+03    0.10696E-02   -0.41820E-01 18080   0.176E+00    0.125E-01
DAV:   2    -0.279732253187E+03   -0.17106E-02   -0.18244E-02 20126   0.399E-01    0.697E-02
DAV:   3    -0.279732260248E+03   -0.70609E-05   -0.50027E-04 29208   0.713E-02    0.473E-02
DAV:   4    -0.279732246812E+03    0.13436E-04   -0.56938E-05 25568   0.270E-02    0.312E-02
DAV:   5    -0.279732243477E+03    0.33350E-05   -0.22562E-05 22400   0.192E-02    0.830E-03
DAV:   6    -0.279732244980E+03   -0.15031E-05   -0.85370E-06 21688   0.935E-03    0.585E-03
DAV:   7    -0.279732245544E+03   -0.56397E-06   -0.90331E-07 12072   0.430E-03
  24 F= -.27973225E+03 E0= -.27973311E+03  d E =-.634190E-03  mag=     3.9932
       N       E                     dE             d eps       ncg     rms          rms(c)
DAV:   1    -0.279732254131E+03   -0.91513E-05   -0.15771E-02 17892   0.393E-01    0.330E-02
DAV:   2    -0.279732325342E+03   -0.71210E-04   -0.87316E-04 20056   0.963E-02    0.235E-02
DAV:   3    -0.279732326032E+03   -0.69012E-06   -0.36386E-05 26114   0.226E-02    0.153E-02
DAV:   4    -0.279732324903E+03    0.11287E-05   -0.58741E-06 20680   0.944E-03    0.995E-03
DAV:   5    -0.279732324586E+03    0.31723E-06   -0.30621E-06 17288   0.731E-03
  25 F= -.27973232E+03 E0= -.27973319E+03  d E =-.790418E-04  mag=     3.9931
       N       E                     dE             d eps       ncg     rms          rms(c)
DAV:   1    -0.279732304799E+03    0.20105E-04   -0.69811E-02 18104   0.751E-01    0.494E-02
DAV:   2    -0.279732565711E+03   -0.26091E-03   -0.27959E-03 20104   0.167E-01    0.276E-02
DAV:   3    -0.279732567250E+03   -0.15391E-05   -0.78905E-05 28604   0.279E-02    0.188E-02
DAV:   4    -0.279732565168E+03    0.20817E-05   -0.93906E-06 24104   0.113E-02    0.127E-02
DAV:   5    -0.279732565038E+03    0.12986E-06   -0.40054E-06 19768   0.884E-03
  26 F= -.27973257E+03 E0= -.27973343E+03  d E =-.240452E-03  mag=     3.9930
       N       E                     dE             d eps       ncg     rms          rms(c)
DAV:   1    -0.279731771983E+03    0.79319E-03   -0.37719E-01 18080   0.169E+00    0.121E-01
DAV:   2    -0.279733031507E+03   -0.12595E-02   -0.13597E-02 20080   0.375E-01    0.852E-02
DAV:   3    -0.279733041731E+03   -0.10224E-04   -0.43982E-04 27336   0.810E-02    0.496E-02
DAV:   4    -0.279733029708E+03    0.12023E-04   -0.61206E-05 26848   0.312E-02    0.307E-02
DAV:   5    -0.279733022318E+03    0.73907E-05   -0.34114E-05 23408   0.218E-02    0.118E-02
DAV:   6    -0.279733023916E+03   -0.15982E-05   -0.10404E-05 22264   0.112E-02    0.610E-03
DAV:   7    -0.279733024349E+03   -0.43370E-06   -0.11151E-06 12584   0.457E-03
  27 F= -.27973302E+03 E0= -.27973389E+03  d E =-.459311E-03  mag=     3.9930
       N       E                     dE             d eps       ncg     rms          rms(c)
DAV:   1    -0.279731916769E+03    0.11071E-02   -0.40603E-01 18080   0.181E+00    0.128E-01
DAV:   2    -0.279733379860E+03   -0.14631E-02   -0.15781E-02 19984   0.408E-01    0.897E-02
DAV:   3    -0.279733394212E+03   -0.14352E-04   -0.49904E-04 27760   0.875E-02    0.540E-02
DAV:   4    -0.279733382340E+03    0.11872E-04   -0.65696E-05 26432   0.325E-02    0.337E-02
DAV:   5    -0.279733375078E+03    0.72625E-05   -0.38122E-05 23440   0.242E-02    0.123E-02
DAV:   6    -0.279733378479E+03   -0.34010E-05   -0.11958E-05 22712   0.116E-02    0.701E-03
DAV:   7    -0.279733380341E+03   -0.18620E-05   -0.12657E-06 13360   0.507E-03    0.571E-03
DAV:   8    -0.279733382147E+03   -0.18066E-05   -0.61929E-07 11704   0.411E-03    0.449E-03
DAV:   9    -0.279733383705E+03   -0.15572E-05   -0.76670E-07 11984   0.377E-03    0.374E-03
DAV:  10    -0.279733384940E+03   -0.12352E-05   -0.62101E-07 11536   0.331E-03    0.340E-03
DAV:  11    -0.279733386074E+03   -0.11346E-05   -0.50655E-07 12352   0.411E-03    0.311E-03
DAV:  12    -0.279733384158E+03    0.19167E-05   -0.58288E-06 17264   0.119E-02    0.425E-03
DAV:  13    -0.279733387967E+03   -0.38096E-05   -0.21992E-06 14296   0.538E-03    0.250E-03
DAV:  14    -0.279733388920E+03   -0.95280E-06   -0.49783E-07 11496   0.410E-03
  28 F= -.27973339E+03 E0= -.27973425E+03  d E =-.364571E-03  mag=     3.9928
       N       E                     dE             d eps       ncg     rms          rms(c)
DAV:   1    -0.279733262028E+03    0.12594E-03   -0.21759E-02 17856   0.430E-01    0.334E-02
DAV:   2    -0.279733339351E+03   -0.77323E-04   -0.88282E-04 20128   0.100E-01    0.281E-02
DAV:   3    -0.279733340842E+03   -0.14906E-05   -0.40663E-05 25460   0.261E-02    0.166E-02
DAV:   4    -0.279733339778E+03    0.10639E-05   -0.54175E-06 19912   0.955E-03    0.979E-03
DAV:   5    -0.279733338650E+03    0.11279E-05   -0.39562E-06 17528   0.690E-03    0.345E-03
DAV:   6    -0.279733338614E+03    0.35507E-07   -0.98473E-07 11688   0.395E-03
  29 F= -.27973334E+03 E0= -.27973420E+03  d E =0.503057E-04  mag=     3.9926
       N       E                     dE             d eps       ncg     rms          rms(c)
DAV:   1    -0.279733366571E+03   -0.27921E-04   -0.75252E-03 17998   0.230E-01    0.152E-02
DAV:   2    -0.279733393492E+03   -0.26921E-04   -0.28922E-04 20322   0.505E-02    0.913E-03
DAV:   3    -0.279733393287E+03    0.20498E-06   -0.65123E-06 23134   0.813E-03
  30 F= -.27973339E+03 E0= -.27973426E+03  d E =-.546726E-04  mag=     3.9927
       N       E                     dE             d eps       ncg     rms          rms(c)
DAV:   1    -0.279733417072E+03   -0.23580E-04   -0.18316E-02 17832   0.356E-01    0.368E-02
DAV:   2    -0.279733472821E+03   -0.55749E-04   -0.69207E-04 20082   0.954E-02    0.371E-02
DAV:   3    -0.279733473288E+03   -0.46689E-06   -0.32570E-05 25808   0.268E-02    0.137E-02
DAV:   4    -0.279733472035E+03    0.12532E-05   -0.61424E-06 21056   0.795E-03    0.941E-03
DAV:   5    -0.279733471235E+03    0.79976E-06   -0.27359E-06 16192   0.536E-03
  31 F= -.27973347E+03 E0= -.27973433E+03  d E =-.779482E-04  mag=     3.9928
       N       E                     dE             d eps       ncg     rms          rms(c)
DAV:   1    -0.279733491832E+03   -0.19797E-04   -0.90760E-03 17864   0.287E-01    0.524E-02
DAV:   2    -0.279733515252E+03   -0.23420E-04   -0.49732E-04 19016   0.108E-01    0.586E-02
DAV:   3    -0.279733516509E+03   -0.12575E-05   -0.48235E-05 22946   0.350E-02    0.139E-02
DAV:   4    -0.279733515122E+03    0.13872E-05   -0.10139E-05 21384   0.964E-03    0.102E-02
DAV:   5    -0.279733514889E+03    0.23299E-06   -0.19692E-06 13274   0.503E-03
  32 F= -.27973351E+03 E0= -.27973438E+03  d E =-.436540E-04  mag=     3.9926
       N       E                     dE             d eps       ncg     rms          rms(c)
DAV:   1    -0.279733467898E+03    0.47224E-04   -0.33179E-02 18122   0.536E-01    0.364E-02
DAV:   2    -0.279733609321E+03   -0.14142E-03   -0.14923E-03 19590   0.121E-01    0.221E-02
DAV:   3    -0.279733611455E+03   -0.21342E-05   -0.45374E-05 27306   0.239E-02    0.158E-02
DAV:   4    -0.279733610741E+03    0.71397E-06   -0.50660E-06 21648   0.865E-03
  33 F= -.27973361E+03 E0= -.27973447E+03  d E =-.958518E-04  mag=     3.9926
       N       E                     dE             d eps       ncg     rms          rms(c)
DAV:   1    -0.279733550936E+03    0.60519E-04   -0.57573E-03 17856   0.236E-01    0.214E-02
DAV:   2    -0.279733578200E+03   -0.27264E-04   -0.30344E-04 19046   0.586E-02    0.188E-02
DAV:   3    -0.279733578810E+03   -0.61005E-06   -0.11293E-05 21602   0.148E-02    0.807E-03
DAV:   4    -0.279733578438E+03    0.37234E-06   -0.15139E-06 12832   0.597E-03
  34 F= -.27973358E+03 E0= -.27973444E+03  d E =0.323035E-04  mag=     3.9927
       N       E                     dE             d eps       ncg     rms          rms(c)
DAV:   1    -0.279733589651E+03   -0.10841E-04   -0.99884E-04 18036   0.101E-01    0.124E-02
DAV:   2    -0.279733594304E+03   -0.46539E-05   -0.59885E-05 18712   0.297E-02    0.139E-02
DAV:   3    -0.279733594516E+03   -0.21186E-06   -0.38150E-06 16750   0.958E-03
  35 F= -.27973359E+03 E0= -.27973446E+03  d E =-.160787E-04  mag=     3.9928
       N       E                     dE             d eps       ncg     rms          rms(c)
DAV:   1    -0.279733633606E+03   -0.39302E-04   -0.23534E-02 17828   0.418E-01    0.913E-02
DAV:   2    -0.279733675071E+03   -0.41465E-04   -0.12849E-03 18246   0.183E-01    0.101E-01
DAV:   3    -0.279733673638E+03    0.14331E-05   -0.10751E-04 23688   0.574E-02    0.252E-02
DAV:   4    -0.279733669697E+03    0.39406E-05   -0.29293E-05 26824   0.172E-02    0.165E-02
DAV:   5    -0.279733667666E+03    0.20313E-05   -0.78338E-06 23840   0.965E-03    0.129E-02
DAV:   6    -0.279733666731E+03    0.93423E-06   -0.11837E-06 10888   0.448E-03
  36 F= -.27973367E+03 E0= -.27973453E+03  d E =-.722151E-04  mag=     3.9931
       N       E                     dE             d eps       ncg     rms          rms(c)
DAV:   1    -0.279733701719E+03   -0.34054E-04   -0.15505E-03 19722   0.163E-01    0.663E-02
DAV:   2    -0.279733677712E+03    0.24008E-04   -0.27196E-04 19872   0.113E-01    0.624E-02
DAV:   3    -0.279733674141E+03    0.35711E-05   -0.24970E-05 21008   0.314E-02    0.164E-02
DAV:   4    -0.279733671325E+03    0.28151E-05   -0.10465E-05 26328   0.115E-02    0.885E-03
DAV:   5    -0.279733671188E+03    0.13772E-06   -0.33543E-06 15408   0.679E-03
  37 F= -.27973367E+03 E0= -.27973453E+03  d E =-.445636E-05  mag=     3.9929
       N       E                     dE             d eps       ncg     rms          rms(c)
DAV:   1    -0.279733668851E+03    0.24745E-05   -0.91320E-03 18076   0.282E-01    0.252E-02
DAV:   2    -0.279733707195E+03   -0.38344E-04   -0.42228E-04 19482   0.703E-02    0.228E-02
DAV:   3    -0.279733708471E+03   -0.12764E-05   -0.19807E-05 21600   0.200E-02    0.118E-02
DAV:   4    -0.279733708280E+03    0.19183E-06   -0.24432E-06 16352   0.696E-03
  38 F= -.27973371E+03 E0= -.27973457E+03  d E =-.370919E-04  mag=     3.9931
       N       E                     dE             d eps       ncg     rms          rms(c)
DAV:   1    -0.279733717008E+03   -0.85367E-05   -0.33696E-03 17868   0.152E-01    0.154E-02
DAV:   2    -0.279733727901E+03   -0.10893E-04   -0.13179E-04 20976   0.385E-02    0.134E-02
DAV:   3    -0.279733727863E+03    0.37810E-07   -0.48374E-06 19560   0.100E-02
  39 F= -.27973373E+03 E0= -.27973459E+03  d E =-.195836E-04  mag=     3.9931
       N       E                     dE             d eps       ncg     rms          rms(c)
DAV:   1    -0.279733735021E+03   -0.71196E-05   -0.29682E-03 18164   0.155E-01    0.136E-02
DAV:   2    -0.279733745949E+03   -0.10928E-04   -0.12917E-04 20088   0.394E-02    0.137E-02
DAV:   3    -0.279733746081E+03   -0.13214E-06   -0.57590E-06 18720   0.111E-02
  40 F= -.27973375E+03 E0= -.27973461E+03  d E =-.182180E-04  mag=     3.9932
       N       E                     dE             d eps       ncg     rms          rms(c)
DAV:   1    -0.279733758831E+03   -0.12881E-04   -0.58528E-03 17876   0.218E-01    0.379E-02
DAV:   2    -0.279733770069E+03   -0.11239E-04   -0.26955E-04 19264   0.799E-02    0.429E-02
DAV:   3    -0.279733770466E+03   -0.39687E-06   -0.25826E-05 20832   0.261E-02    0.116E-02
DAV:   4    -0.279733769659E+03    0.80684E-06   -0.65695E-06 20624   0.809E-03
  41 F= -.27973377E+03 E0= -.27973463E+03  d E =-.235779E-04  mag=     3.9934
       N       E                     dE             d eps       ncg     rms          rms(c)
DAV:   1    -0.279733762631E+03    0.78351E-05   -0.66643E-03 18164   0.246E-01    0.232E-02
DAV:   2    -0.279733789966E+03   -0.27335E-04   -0.30413E-04 19760   0.606E-02    0.200E-02
DAV:   3    -0.279733790489E+03   -0.52292E-06   -0.14033E-05 21630   0.162E-02    0.960E-03
DAV:   4    -0.279733790047E+03    0.44165E-06   -0.17409E-06 14456   0.597E-03
  42 F= -.27973379E+03 E0= -.27973465E+03  d E =-.203882E-04  mag=     3.9934
       N       E                     dE             d eps       ncg     rms          rms(c)
DAV:   1    -0.279733795044E+03   -0.45552E-05   -0.26866E-03 17868   0.148E-01    0.141E-02
DAV:   2    -0.279733803248E+03   -0.82032E-05   -0.10127E-04 20920   0.363E-02    0.134E-02
DAV:   3    -0.279733803298E+03   -0.50011E-07   -0.47408E-06 17586   0.103E-02
  43 F= -.27973380E+03 E0= -.27973467E+03  d E =-.132501E-04  mag=     3.9933
       N       E                     dE             d eps       ncg     rms          rms(c)
DAV:   1    -0.279733809419E+03   -0.61716E-05   -0.65645E-04 19438   0.109E-01    0.376E-02
DAV:   2    -0.279733802482E+03    0.69375E-05   -0.10523E-04 19824   0.655E-02    0.389E-02
DAV:   3    -0.279733801592E+03    0.88985E-06   -0.10770E-05 17488   0.190E-02    0.107E-02
DAV:   4    -0.279733800711E+03    0.88076E-06   -0.38576E-06 17344   0.690E-03
  44 F= -.27973380E+03 E0= -.27973466E+03  d E =0.258657E-05  mag=     3.9932
       N       E                     dE             d eps       ncg     rms          rms(c)
DAV:   1    -0.279733798808E+03    0.27840E-05   -0.44042E-03 17844   0.196E-01    0.195E-02
DAV:   2    -0.279733814501E+03   -0.15693E-04   -0.20308E-04 20072   0.522E-02    0.224E-02
DAV:   3    -0.279733814974E+03   -0.47254E-06   -0.11417E-05 20140   0.159E-02    0.879E-03
DAV:   4    -0.279733814843E+03    0.13121E-06   -0.17897E-06 14144   0.597E-03
  45 F= -.27973381E+03 E0= -.27973468E+03  d E =-.141316E-04  mag=     3.9932
       N       E                     dE             d eps       ncg     rms          rms(c)
DAV:   1    -0.279733827450E+03   -0.12477E-04   -0.72391E-04 19160   0.987E-02    0.322E-02
DAV:   2    -0.279733826117E+03    0.13330E-05   -0.79575E-05 19864   0.564E-02    0.315E-02
DAV:   3    -0.279733826109E+03    0.88039E-08   -0.87458E-06 17792   0.166E-02
  46 F= -.27973383E+03 E0= -.27973469E+03  d E =-.112661E-04  mag=     3.9933
       N       E                     dE             d eps       ncg     rms          rms(c)
DAV:   1    -0.279733847676E+03   -0.21558E-04   -0.26172E-03 18766   0.170E-01    0.549E-02
DAV:   2    -0.279733839975E+03    0.77006E-05   -0.26126E-04 19432   0.101E-01    0.595E-02
DAV:   3    -0.279733838332E+03    0.16433E-05   -0.25306E-05 20368   0.297E-02    0.160E-02
DAV:   4    -0.279733836621E+03    0.17107E-05   -0.90673E-06 25264   0.987E-03    0.998E-03
DAV:   5    -0.279733835524E+03    0.10975E-05   -0.27914E-06 14320   0.599E-03    0.799E-03
DAV:   6    -0.279733834780E+03    0.74380E-06   -0.68461E-07 10192   0.335E-03
  47 F= -.27973383E+03 E0= -.27973470E+03  d E =-.867113E-05  mag=     3.9935
       N       E                     dE             d eps       ncg     rms          rms(c)
DAV:   1    -0.279733822569E+03    0.12954E-04   -0.35820E-03 18158   0.170E-01    0.199E-02
DAV:   2    -0.279733838797E+03   -0.16228E-04   -0.19212E-04 20656   0.426E-02    0.159E-02
DAV:   3    -0.279733838885E+03   -0.87966E-07   -0.11314E-05 20532   0.144E-02    0.126E-02
DAV:   4    -0.279733838531E+03    0.35401E-06   -0.15231E-06 15648   0.551E-03
  48 F= -.27973384E+03 E0= -.27973470E+03  d E =-.375099E-05  mag=     3.9936
       N       E                     dE             d eps       ncg     rms          rms(c)
DAV:   1    -0.279733843113E+03   -0.42281E-05   -0.12376E-03 17904   0.109E-01    0.188E-02
DAV:   2    -0.279733848232E+03   -0.51188E-05   -0.96801E-05 19640   0.351E-02    0.198E-02
DAV:   3    -0.279733848111E+03    0.12070E-06   -0.61595E-06 20496   0.124E-02
  49 F= -.27973385E+03 E0= -.27973471E+03  d E =-.958027E-05  mag=     3.9935
       N       E                     dE             d eps       ncg     rms          rms(c)
DAV:   1    -0.279733841978E+03    0.62535E-05   -0.60272E-04 19708   0.146E-01    0.270E-02
DAV:   2    -0.279733846501E+03   -0.45232E-05   -0.14286E-04 19344   0.527E-02    0.310E-02
DAV:   3    -0.279733847002E+03   -0.50027E-06   -0.15095E-05 17200   0.188E-02    0.879E-03
DAV:   4    -0.279733846422E+03    0.57934E-06   -0.32980E-06 14400   0.669E-03
  50 F= -.27973385E+03 E0= -.27973471E+03  d E =0.168869E-05  mag=     3.9934
       N       E                     dE             d eps       ncg     rms          rms(c)
DAV:   1    -0.279733848307E+03   -0.13057E-05   -0.24397E-03 17862   0.146E-01    0.151E-02
DAV:   2    -0.279733857124E+03   -0.88167E-05   -0.10103E-04 19864   0.374E-02    0.139E-02
DAV:   3    -0.279733857672E+03   -0.54826E-06   -0.64830E-06 18938   0.119E-02
  51 F= -.27973386E+03 E0= -.27973472E+03  d E =-.112500E-04  mag=     3.9934
