<?xml version="1.0" encoding="ISO-8859-1"?>
<modeling>
 <generator>
  <i name="program" type="string">vasp </i>
  <i name="version" type="string">5.4.4.18Apr17-6-g9f103f2a35  </i>
  <i name="subversion" type="string">(build Nov 08 2017 09:05:29) complex            parallel </i>
  <i name="platform" type="string">Intel_17.33 </i>
  <i name="date" type="string">2018 12 30 </i>
  <i name="time" type="string">13:12:48 </i>
 </generator>
 <incar>
  <i type="string" name="SYSTEM">Bi1Cu1O1Se1_ICSD_189174</i>
  <i type="string" name="PREC">high</i>
  <i type="string" name="ALGO">NORMAL</i>
  <i type="int" name="ISPIN">     2</i>
  <i type="int" name="NELM">   120</i>
  <i type="int" name="NELMIN">     2</i>
  <i type="int" name="IBRION">     1</i>
  <i name="EDIFF">      0.00000100</i>
  <i name="EDIFFG">     -0.00500000</i>
  <i type="int" name="NSW">    75</i>
  <i type="int" name="ISIF">     3</i>
  <i type="int" name="ISYM">     2</i>
  <i name="ENCUT">    500.00000000</i>
  <i type="string" name="LREAL"> AUTO</i>
  <i type="logical" name="LPLANE"> T  </i>
  <i type="int" name="ISMEAR">     1</i>
  <i name="SIGMA">      0.10000000</i>
  <i type="int" name="LMAXMIX">     4</i>
  <i type="logical" name="LWAVE"> F  </i>
  <i type="logical" name="LCHARG"> F  </i>
  <i type="logical" name="LSCALU"> F  </i>
  <v type="int" name="KPOINT_BSE">    -1     0     0     0</v>
  <i type="int" name="NELM">   120</i>
  <i type="logical" name="LDAU"> T  </i>
  <v type="int" name="LDAUTYPE">     2</v>
  <v type="int" name="LDAUL">     0     0     2     2     0</v>
  <v name="LDAUU">      0.00000000      0.00000000      5.10000000      2.10000000      0.00000000</v>
  <v name="LDAUJ">      0.00000000      0.00000000      0.00000000      0.00000000      0.00000000</v>
  <i type="int" name="LDAUPRINT">     0</i>
 </incar>
 <structure name="primitive_cell" >
  <crystal>
   <varray name="basis" >
    <v>       8.04965000       0.00000000       0.00000000 </v>
    <v>       0.00000000       8.04965000       0.00000000 </v>
    <v>       0.00000000       0.00000000       8.22089200 </v>
   </varray>
   <i name="volume">    532.68803011 </i>
   <varray name="rec_basis" >
    <v>       0.12422900       0.00000000       0.00000000 </v>
    <v>       0.00000000       0.12422900       0.00000000 </v>
    <v>       0.00000000       0.00000000       0.12164130 </v>
   </varray>
  </crystal>
  <varray name="positions" >
   <v>       0.00000000       0.00000000       0.00887400 </v>
   <v>       0.25000000       0.00000000      -0.23069100 </v>
   <v>       0.00000000       0.25000000      -0.23069100 </v>
   <v>      -0.25000000       0.00000000      -0.23069100 </v>
   <v>       0.00000000      -0.25000000      -0.23069100 </v>
   <v>       0.25000000      -0.25000000       0.02155100 </v>
   <v>      -0.25000000       0.25000000       0.02155100 </v>
   <v>      -0.25000000      -0.25000000       0.02155100 </v>
   <v>       0.25000000       0.00000000       0.26930900 </v>
   <v>       0.00000000       0.25000000       0.26930900 </v>
   <v>      -0.25000000       0.00000000       0.26930900 </v>
   <v>       0.00000000      -0.25000000       0.26930900 </v>
   <v>       0.25000000       0.25000000       0.25195800 </v>
   <v>       0.25000000      -0.25000000       0.25195800 </v>
   <v>      -0.25000000       0.25000000       0.25195800 </v>
   <v>      -0.25000000      -0.25000000       0.25195800 </v>
   <v>       0.25000000       0.25000000      -0.24804200 </v>
   <v>      -0.25000000      -0.25000000      -0.24804200 </v>
   <v>       0.25000000      -0.25000000      -0.24804200 </v>
   <v>      -0.25000000       0.25000000      -0.24804200 </v>
   <v>      -0.50000000       0.00000000       0.00887400 </v>
   <v>       0.00000000      -0.50000000       0.00887400 </v>
   <v>       0.00000000       0.00000000      -0.49112600 </v>
   <v>      -0.50000000       0.25000000      -0.23069100 </v>
   <v>       0.25000000      -0.50000000      -0.23069100 </v>
   <v>      -0.50000000      -0.25000000      -0.23069100 </v>
   <v>      -0.25000000      -0.50000000      -0.23069100 </v>
   <v>       0.25000000       0.25000000      -0.47844900 </v>
   <v>       0.25000000      -0.25000000      -0.47844900 </v>
   <v>      -0.25000000       0.25000000      -0.47844900 </v>
   <v>      -0.25000000      -0.25000000      -0.47844900 </v>
   <v>      -0.50000000       0.25000000       0.26930900 </v>
   <v>       0.25000000      -0.50000000       0.26930900 </v>
   <v>      -0.50000000      -0.25000000       0.26930900 </v>
   <v>      -0.25000000      -0.50000000       0.26930900 </v>
   <v>      -0.50000000      -0.50000000       0.00887400 </v>
   <v>       0.00000000      -0.50000000      -0.49112600 </v>
   <v>      -0.50000000       0.00000000      -0.49112600 </v>
   <v>      -0.50000000      -0.50000000      -0.49112600 </v>
  </varray>
 </structure>
 <varray name="primitive_index" >
  <v type="int" >        1 </v>
  <v type="int" >       28 </v>
  <v type="int" >       31 </v>
  <v type="int" >       36 </v>
  <v type="int" >       39 </v>
  <v type="int" >       18 </v>
  <v type="int" >       19 </v>
  <v type="int" >       22 </v>
  <v type="int" >       24 </v>
  <v type="int" >       27 </v>
  <v type="int" >       32 </v>
  <v type="int" >       35 </v>
  <v type="int" >       11 </v>
  <v type="int" >       12 </v>
  <v type="int" >       13 </v>
  <v type="int" >       16 </v>
  <v type="int" >        9 </v>
  <v type="int" >       10 </v>
  <v type="int" >       14 </v>
  <v type="int" >       15 </v>
  <v type="int" >        2 </v>
  <v type="int" >        5 </v>
  <v type="int" >        6 </v>
  <v type="int" >       29 </v>
  <v type="int" >       30 </v>
  <v type="int" >       37 </v>
  <v type="int" >       38 </v>
  <v type="int" >       17 </v>
  <v type="int" >       20 </v>
  <v type="int" >       21 </v>
  <v type="int" >       23 </v>
  <v type="int" >       25 </v>
  <v type="int" >       26 </v>
  <v type="int" >       33 </v>
  <v type="int" >       34 </v>
  <v type="int" >        3 </v>
  <v type="int" >        4 </v>
  <v type="int" >        7 </v>
  <v type="int" >        8 </v>
 </varray>
 <kpoints>
  <generation param="Monkhorst-Pack">
   <v type="int" name="divisions">       4        4        4 </v>
   <v name="usershift">      0.00000000       0.00000000       0.00000000 </v>
   <v name="genvec1">      0.25000000       0.00000000       0.00000000 </v>
   <v name="genvec2">      0.00000000       0.25000000       0.00000000 </v>
   <v name="genvec3">      0.00000000       0.00000000       0.25000000 </v>
   <v name="shift">      0.50000000       0.50000000       0.50000000 </v>
  </generation>
  <varray name="kpointlist" >
   <v>       0.12500000       0.12500000       0.12500000 </v>
   <v>       0.37500000       0.12500000       0.12500000 </v>
   <v>      -0.37500000       0.12500000       0.12500000 </v>
   <v>      -0.12500000       0.12500000       0.12500000 </v>
   <v>       0.12500000       0.37500000       0.12500000 </v>
   <v>       0.37500000       0.37500000       0.12500000 </v>
   <v>      -0.37500000       0.37500000       0.12500000 </v>
   <v>       0.12500000      -0.37500000       0.12500000 </v>
   <v>       0.37500000      -0.37500000       0.12500000 </v>
   <v>       0.12500000      -0.12500000       0.12500000 </v>
   <v>       0.12500000       0.12500000       0.37500000 </v>
   <v>       0.37500000       0.12500000       0.37500000 </v>
   <v>      -0.37500000       0.12500000       0.37500000 </v>
   <v>      -0.12500000       0.12500000       0.37500000 </v>
   <v>       0.12500000       0.37500000       0.37500000 </v>
   <v>       0.37500000       0.37500000       0.37500000 </v>
   <v>      -0.37500000       0.37500000       0.37500000 </v>
   <v>       0.12500000      -0.37500000       0.37500000 </v>
   <v>       0.37500000      -0.37500000       0.37500000 </v>
   <v>       0.12500000      -0.12500000       0.37500000 </v>
  </varray>
  <varray name="weights" >
   <v>       0.06250000 </v>
   <v>       0.06250000 </v>
   <v>       0.06250000 </v>
   <v>       0.03125000 </v>
   <v>       0.06250000 </v>
   <v>       0.06250000 </v>
   <v>       0.03125000 </v>
   <v>       0.06250000 </v>
   <v>       0.03125000 </v>
   <v>       0.03125000 </v>
   <v>       0.06250000 </v>
   <v>       0.06250000 </v>
   <v>       0.06250000 </v>
   <v>       0.03125000 </v>
   <v>       0.06250000 </v>
   <v>       0.06250000 </v>
   <v>       0.03125000 </v>
   <v>       0.06250000 </v>
   <v>       0.03125000 </v>
   <v>       0.03125000 </v>
  </varray>
 </kpoints>
 <parameters>
  <separator name="general" >
   <i type="string" name="SYSTEM">Bi1Cu1O1Se1_ICSD_189174</i>
   <i type="logical" name="LCOMPAT"> F  </i>
  </separator>
  <separator name="electronic" >
   <i type="string" name="PREC">high</i>
   <i name="ENMAX">    500.00000000</i>
   <i name="ENAUG">    703.44300000</i>
   <i name="EDIFF">      0.00000100</i>
   <i type="int" name="IALGO">    38</i>
   <i type="int" name="IWAVPR">    11</i>
   <i type="int" name="NBANDS">   214</i>
   <i name="NELECT">    324.00000000</i>
   <i type="int" name="TURBO">     0</i>
   <i type="int" name="IRESTART">     0</i>
   <i type="int" name="NREBOOT">     0</i>
   <i type="int" name="NMIN">     0</i>
   <i name="EREF">      0.00000000</i>
   <separator name="electronic smearing" >
    <i type="int" name="ISMEAR">     1</i>
    <i name="SIGMA">      0.10000000</i>
    <i name="KSPACING">      0.50000000</i>
    <i type="logical" name="KGAMMA"> T  </i>
   </separator>
   <separator name="electronic projectors" >
    <i type="logical" name="LREAL"> T  </i>
    <v name="ROPT">     -0.00040000     -0.00040000     -0.00040000     -0.00040000     -0.00040000</v>
    <i type="int" name="LMAXPAW">  -100</i>
    <i type="int" name="LMAXMIX">     4</i>
    <i type="logical" name="NLSPLINE"> F  </i>
   </separator>
   <separator name="electronic startup" >
    <i type="int" name="ISTART">     0</i>
    <i type="int" name="ICHARG">     2</i>
    <i type="int" name="INIWAV">     1</i>
   </separator>
   <separator name="electronic spin" >
    <i type="int" name="ISPIN">     2</i>
    <i type="logical" name="LNONCOLLINEAR"> F  </i>
    <v name="MAGMOM">      1.00000000      1.00000000      1.00000000      1.00000000      1.00000000      1.00000000      1.00000000      1.00000000      1.00000000      1.00000000      1.00000000      1.00000000      1.00000000      1.00000000      1.00000000      1.00000000      1.00000000      1.00000000      1.00000000      1.00000000
      1.00000000      1.00000000      1.00000000      1.00000000      1.00000000      1.00000000      1.00000000      1.00000000      1.00000000      1.00000000      1.00000000      1.00000000      1.00000000      1.00000000      1.00000000      1.00000000      1.00000000      1.00000000      1.00000000</v>
    <i name="NUPDOWN">     -1.00000000</i>
    <i type="logical" name="LSORBIT"> F  </i>
    <v name="SAXIS">      0.00000000      0.00000000      1.00000000</v>
    <i type="logical" name="LSPIRAL"> F  </i>
    <v name="QSPIRAL">      0.00000000      0.00000000      0.00000000</v>
    <i type="logical" name="LZEROZ"> F  </i>
   </separator>
   <separator name="electronic exchange-correlation" >
    <i type="logical" name="LASPH"> F  </i>
    <i type="logical" name="LMETAGGA"> F  </i>
   </separator>
   <separator name="electronic convergence" >
    <i type="int" name="NELM">   120</i>
    <i type="int" name="NELMDL">    -5</i>
    <i type="int" name="NELMIN">     2</i>
    <i name="ENINI">    500.00000000</i>
    <separator name="electronic convergence detail" >
     <i type="logical" name="LDIAG"> T  </i>
     <i type="logical" name="LSUBROT"> F  </i>
     <i name="WEIMIN">      0.00100000</i>
     <i name="EBREAK">      0.00000000</i>
     <i name="DEPER">      0.30000000</i>
     <i type="int" name="NRMM">     4</i>
     <i name="TIME">      0.40000000</i>
    </separator>
   </separator>
   <separator name="electronic mixer" >
    <i name="AMIX">      0.40000000</i>
    <i name="BMIX">      1.00000000</i>
    <i name="AMIN">      0.10000000</i>
    <i name="AMIX_MAG">      1.60000000</i>
    <i name="BMIX_MAG">      1.00000000</i>
    <separator name="electronic mixer details" >
     <i type="int" name="IMIX">     4</i>
     <i type="logical" name="MIXFIRST"> F  </i>
     <i type="int" name="MAXMIX">   -45</i>
     <i name="WC">    100.00000000</i>
     <i type="int" name="INIMIX">     1</i>
     <i type="int" name="MIXPRE">     1</i>
     <i type="int" name="MREMOVE">     5</i>
    </separator>
   </separator>
   <separator name="electronic dipolcorrection" >
    <i type="logical" name="LDIPOL"> F  </i>
    <i type="logical" name="LMONO"> F  </i>
    <i type="int" name="IDIPOL">     0</i>
    <i name="EPSILON">      1.00000000</i>
    <v name="DIPOL">   -100.00000000   -100.00000000   -100.00000000</v>
    <i name="EFIELD">      0.00000000</i>
   </separator>
  </separator>
  <separator name="grids" >
   <i type="int" name="NGX">    60</i>
   <i type="int" name="NGY">    60</i>
   <i type="int" name="NGZ">    60</i>
   <i type="int" name="NGXF">    96</i>
   <i type="int" name="NGYF">    96</i>
   <i type="int" name="NGZF">    96</i>
   <i type="logical" name="ADDGRID"> F  </i>
  </separator>
  <separator name="ionic" >
   <i type="int" name="NSW">    75</i>
   <i type="int" name="IBRION">     1</i>
   <i type="int" name="MDALGO">     0</i>
   <i type="int" name="ISIF">     3</i>
   <i name="PSTRESS">      0.00000000</i>
   <i name="EDIFFG">     -0.00500000</i>
   <i type="int" name="NFREE">     0</i>
   <i name="POTIM">      0.50000000</i>
   <i name="SMASS">     -3.00000000</i>
   <i name="SCALEE">      1.00000000</i>
  </separator>
  <separator name="ionic md" >
   <i name="TEBEG">      0.00010000</i>
   <i name="TEEND">      0.00010000</i>
   <i type="int" name="NBLOCK">     1</i>
   <i type="int" name="KBLOCK">    75</i>
   <i type="int" name="NPACO">   256</i>
   <i name="APACO">     16.00000000</i>
  </separator>
  <separator name="symmetry" >
   <i type="int" name="ISYM">     2</i>
   <i name="SYMPREC">      0.00001000</i>
  </separator>
  <separator name="dos" >
   <i type="int" name="LORBIT">     0</i>
   <v name="RWIGS">     -1.00000000     -1.00000000     -1.00000000     -1.00000000     -1.00000000</v>
   <i type="int" name="NEDOS">   301</i>
   <i name="EMIN">     10.00000000</i>
   <i name="EMAX">    -10.00000000</i>
   <i name="EFERMI">      0.00000000</i>
  </separator>
  <separator name="writing" >
   <i type="int" name="NWRITE">     2</i>
   <i type="logical" name="LWAVE"> F  </i>
   <i type="logical" name="LDOWNSAMPLE"> F  </i>
   <i type="logical" name="LCHARG"> F  </i>
   <i type="logical" name="LPARD"> F  </i>
   <i type="logical" name="LVTOT"> F  </i>
   <i type="logical" name="LVHAR"> F  </i>
   <i type="logical" name="LELF"> F  </i>
   <i type="logical" name="LOPTICS"> F  </i>
   <v name="STM">      0.00000000      0.00000000      0.00000000      0.00000000      0.00000000      0.00000000      0.00000000</v>
  </separator>
  <separator name="performance" >
   <i type="int" name="NPAR">     1</i>
   <i type="int" name="NSIM">     4</i>
   <i type="int" name="NBLK">    -1</i>
   <i type="logical" name="LPLANE"> T  </i>
   <i type="logical" name="LSCALAPACK"> T  </i>
   <i type="logical" name="LSCAAWARE"> F  </i>
   <i type="logical" name="LSCALU"> F  </i>
   <i type="logical" name="LASYNC"> F  </i>
   <i type="logical" name="LORBITALREAL"> F  </i>
  </separator>
  <separator name="miscellaneous" >
   <i type="int" name="IDIOT">     3</i>
   <i type="int" name="ISPECIAL">     0</i>
   <i type="logical" name="LMUSIC"> F  </i>
   <v name="POMASS">    137.32700000     39.09800000     58.69000000     92.91000000     16.00000000</v>
   <v name="DARWINR">      0.00000000      0.00000000      0.00000000      0.00000000      0.00000000</v>
   <v name="DARWINV">      1.00000000      1.00000000      1.00000000      1.00000000      1.00000000</v>
   <i type="logical" name="LCORR"> T  </i>
  </separator>
  <i type="logical" name="GGA_COMPAT"> T  </i>
  <i type="logical" name="LBERRY"> F  </i>
  <i type="int" name="ICORELEVEL">     0</i>
  <i type="logical" name="LDAU"> T  </i>
  <v type="int" name="LDAUTYPE">     2</v>
  <v type="int" name="LDAUL">     0</v>
  <v name="LDAUU">      0.00000000</v>
  <v name="LDAUJ">      0.00000000</v>
  <i type="int" name="LDAUPRINT">     0</i>
  <i type="int" name="I_CONSTRAINED_M">     0</i>
  <separator name="electronic exchange-correlation" >
   <i type="string" name="GGA">--</i>
   <i type="int" name="VOSKOWN">     0</i>
   <i type="logical" name="LHFCALC"> F  </i>
   <i type="string" name="PRECFOCK"></i>
   <i type="logical" name="LSYMGRAD"> F  </i>
   <i type="logical" name="LHFONE"> F  </i>
   <i type="logical" name="LRHFCALC"> F  </i>
   <i type="logical" name="LTHOMAS"> F  </i>
   <i type="logical" name="LMODELHF"> F  </i>
   <i name="ENCUT4O">     -1.00000000</i>
   <i type="int" name="EXXOEP">     0</i>
   <i type="int" name="FOURORBIT">     0</i>
   <i name="AEXX">      0.00000000</i>
   <i name="HFALPHA">      0.00000000</i>
   <i name="MCALPHA">      0.00000000</i>
   <i name="ALDAX">      1.00000000</i>
   <i name="AGGAX">      1.00000000</i>
   <i name="ALDAC">      1.00000000</i>
   <i name="AGGAC">      1.00000000</i>
   <i type="int" name="NKREDX">     1</i>
   <i type="int" name="NKREDY">     1</i>
   <i type="int" name="NKREDZ">     1</i>
   <i type="logical" name="SHIFTRED"> F  </i>
   <i type="logical" name="ODDONLY"> F  </i>
   <i type="logical" name="EVENONLY"> F  </i>
   <i type="int" name="LMAXFOCK">     0</i>
   <i type="int" name="NMAXFOCKAE">     0</i>
   <i type="logical" name="LFOCKAEDFT"> F  </i>
   <i name="HFSCREEN">      0.00000000</i>
   <i name="HFSCREENC">      0.00000000</i>
   <i type="int" name="NBANDSGWLOW">     0</i>
  </separator>
  <separator name="vdW DFT" >
   <i type="logical" name="LUSE_VDW"> F  </i>
   <i name="Zab_VDW">     -0.84910000</i>
   <i name="PARAM1">      0.12340000</i>
   <i name="PARAM2">      1.00000000</i>
   <i name="PARAM3">      0.00000000</i>
  </separator>
  <separator name="model GW" >
   <i type="int" name="MODEL_GW">     0</i>
   <i name="MODEL_EPS0">      8.19520046</i>
   <i name="MODEL_ALPHA">      1.00000000</i>
  </separator>
  <separator name="linear response parameters" >
   <i type="logical" name="LEPSILON"> F  </i>
   <i type="logical" name="LRPA"> F  </i>
   <i type="logical" name="LNABLA"> F  </i>
   <i type="logical" name="LVEL"> F  </i>
   <i type="int" name="KINTER">     0</i>
   <i name="CSHIFT">      0.10000000</i>
   <i name="OMEGAMAX">     -1.00000000</i>
   <i name="DEG_THRESHOLD">      0.00200000</i>
   <i name="RTIME">     -0.10000000</i>
   <i name="WPLASMAI">      0.00000000</i>
   <v name="DFIELD">      0.00000000      0.00000000      0.00000000</v>
   <v name="WPLASMA">      0.00000000      0.00000000      0.00000000      0.00000000      0.00000000      0.00000000      0.00000000      0.00000000      0.00000000</v>
  </separator>
  <separator name="orbital magnetization" >
   <i type="logical" name="NUCIND"> F  </i>
   <v name="MAGPOS">      0.00000000      0.00000000      0.00000000</v>
   <i type="logical" name="LNICSALL"> T  </i>
   <i type="logical" name="ORBITALMAG"> F  </i>
   <i type="logical" name="LMAGBLOCH"> F  </i>
   <i type="logical" name="LCHIMAG"> F  </i>
   <i type="logical" name="LGAUGE"> T  </i>
   <i type="int" name="MAGATOM">     0</i>
   <v name="MAGDIPOL">      0.00000000      0.00000000      0.00000000</v>
   <v name="AVECCONST">      0.00000000      0.00000000      0.00000000</v>
  </separator>
  <separator name="response functions" >
   <i type="logical" name="LADDER"> F  </i>
   <i type="logical" name="LRPAFORCE"> F  </i>
   <i type="logical" name="LFXC"> F  </i>
   <i type="logical" name="LHARTREE"> T  </i>
   <i type="int" name="IBSE">     0</i>
   <v type="int" name="KPOINT">    -1     0     0     0</v>
   <i type="logical" name="LTCTE"> F  </i>
   <i type="logical" name="LTETE"> F  </i>
   <i type="logical" name="LTRIPLET"> F  </i>
   <i type="logical" name="LFXCEPS"> F  </i>
   <i type="logical" name="LFXHEG"> F  </i>
   <i type="int" name="NATURALO">     2</i>
   <i type="logical" name="L2ORDER"> F  </i>
   <i type="logical" name="LMP2LT"> F  </i>
   <i type="logical" name="LUSEW"> F  </i>
   <i name="ENCUTGW">     -2.00000000</i>
   <i name="ENCUTGWSOFT">     -2.00000000</i>
   <i name="ENCUTLF">     -1.00000000</i>
   <i type="int" name="LMAXMP2">    -1</i>
   <i name="SCISSOR">      0.00000000</i>
   <i type="int" name="NOMEGA">     0</i>
   <i type="int" name="NOMEGAR">     0</i>
   <i type="int" name="NBANDSGW">    -1</i>
   <i type="int" name="NBANDSO">    -1</i>
   <i type="int" name="NBANDSV">    -1</i>
   <i type="int" name="NELM">   120</i>
   <i type="int" name="NELMHF">     1</i>
   <i type="int" name="DIM">     3</i>
   <i type="int" name="ANTIRES">     0</i>
   <i name="OMEGAMAX">    -30.00000000</i>
   <i name="OMEGAMIN">    -30.00000000</i>
   <i name="OMEGATL">   -200.00000000</i>
   <i type="int" name="OMEGAGRID">   140</i>
   <i name="CSHIFT">     -0.10000000</i>
   <i type="logical" name="SELFENERGY"> F  </i>
   <i type="logical" name="LSPECTRAL"> F  </i>
   <i type="logical" name="LSPECTRALGW"> F  </i>
   <i type="logical" name="LSINGLES"> F  </i>
   <i type="logical" name="LFERMIGW"> F  </i>
   <i type="logical" name="ODDONLYGW"> F  </i>
   <i type="logical" name="EVENONLYGW"> F  </i>
   <i type="int" name="NKREDLFX">     1</i>
   <i type="int" name="NKREDLFY">     1</i>
   <i type="int" name="NKREDLFZ">     1</i>
   <i type="int" name="MAXMEM">  2800</i>
   <i type="int" name="TELESCOPE">     0</i>
   <i type="int" name="TAUPAR">     1</i>
   <i type="int" name="OMEGAPAR">    -1</i>
   <i name="LAMBDA">      1.00000000</i>
  </separator>
  <separator name="External order field" >
   <i name="OFIELD_KAPPA">      0.00000000</i>
   <v name="OFIELD_K">      0.00000000      0.00000000      0.00000000</v>
   <i name="OFIELD_Q6_NEAR">      0.00000000</i>
   <i name="OFIELD_Q6_FAR">      0.00000000</i>
   <i name="OFIELD_A">      0.00000000</i>
  </separator>
 </parameters>
 <atominfo>
  <atoms>      39 </atoms>
  <types>       5 </types>
  <array name="atoms" >
   <dimension dim="1">ion</dimension>
   <field type="string">element</field>
   <field type="int">atomtype</field>
   <set>
    <rc><c>Ba</c><c>   1</c></rc>
    <rc><c>Ba</c><c>   1</c></rc>
    <rc><c>Ba</c><c>   1</c></rc>
    <rc><c>Ba</c><c>   1</c></rc>
    <rc><c>K </c><c>   2</c></rc>
    <rc><c>K </c><c>   2</c></rc>
    <rc><c>K </c><c>   2</c></rc>
    <rc><c>K </c><c>   2</c></rc>
    <rc><c>Ni</c><c>   3</c></rc>
    <rc><c>Ni</c><c>   3</c></rc>
    <rc><c>Nb</c><c>   4</c></rc>
    <rc><c>Nb</c><c>   4</c></rc>
    <rc><c>Nb</c><c>   4</c></rc>
    <rc><c>Nb</c><c>   4</c></rc>
    <rc><c>Nb</c><c>   4</c></rc>
    <rc><c>Nb</c><c>   4</c></rc>
    <rc><c>O </c><c>   5</c></rc>
    <rc><c>O </c><c>   5</c></rc>
    <rc><c>O </c><c>   5</c></rc>
    <rc><c>O </c><c>   5</c></rc>
    <rc><c>O </c><c>   5</c></rc>
    <rc><c>O </c><c>   5</c></rc>
    <rc><c>O </c><c>   5</c></rc>
    <rc><c>O </c><c>   5</c></rc>
    <rc><c>O </c><c>   5</c></rc>
    <rc><c>O </c><c>   5</c></rc>
    <rc><c>O </c><c>   5</c></rc>
    <rc><c>O </c><c>   5</c></rc>
    <rc><c>O </c><c>   5</c></rc>
    <rc><c>O </c><c>   5</c></rc>
    <rc><c>O </c><c>   5</c></rc>
    <rc><c>O </c><c>   5</c></rc>
    <rc><c>O </c><c>   5</c></rc>
    <rc><c>O </c><c>   5</c></rc>
    <rc><c>O </c><c>   5</c></rc>
    <rc><c>O </c><c>   5</c></rc>
    <rc><c>O </c><c>   5</c></rc>
    <rc><c>O </c><c>   5</c></rc>
    <rc><c>O </c><c>   5</c></rc>
   </set>
  </array>
  <array name="atomtypes" >
   <dimension dim="1">type</dimension>
   <field type="int">atomspertype</field>
   <field type="string">element</field>
   <field>mass</field>
   <field>valence</field>
   <field type="string">pseudopotential</field>
   <set>
    <rc><c>   4</c><c>Ba</c><c>    137.32700000</c><c>     10.00000000</c><c>  PAW_PBE Ba_sv 06Sep2000               </c></rc>
    <rc><c>   4</c><c>K </c><c>     39.09800000</c><c>      9.00000000</c><c>  PAW_PBE K_sv 06Sep2000                </c></rc>
    <rc><c>   2</c><c>Ni</c><c>     58.69000000</c><c>     16.00000000</c><c>  PAW_PBE Ni_pv 06Sep2000               </c></rc>
    <rc><c>   6</c><c>Nb</c><c>     92.91000000</c><c>     13.00000000</c><c>  PAW_PBE Nb_sv 25May2007               </c></rc>
    <rc><c>  23</c><c>O </c><c>     16.00000000</c><c>      6.00000000</c><c>  PAW_PBE O 08Apr2002                   </c></rc>
   </set>
  </array>
 </atominfo>
 <structure name="initialpos" >
  <crystal>
   <varray name="basis" >
    <v>       8.04965000       0.00000000       0.00000000 </v>
    <v>       0.00000000       8.04965000       0.00000000 </v>
    <v>       0.00000000       0.00000000       8.22089200 </v>
   </varray>
   <i name="volume">    532.68803011 </i>
   <varray name="rec_basis" >
    <v>       0.12422900       0.00000000       0.00000000 </v>
    <v>       0.00000000       0.12422900       0.00000000 </v>
    <v>       0.00000000       0.00000000       0.12164130 </v>
   </varray>
  </crystal>
  <varray name="positions" >
   <v>       0.00000000       0.00000000       0.00887400 </v>
   <v>       0.50000000       0.00000000       0.00887400 </v>
   <v>       0.50000000       0.50000000       0.00887400 </v>
   <v>       0.00000000       0.50000000       0.50887400 </v>
   <v>       0.00000000       0.50000000       0.00887400 </v>
   <v>       0.00000000       0.00000000       0.50887400 </v>
   <v>       0.50000000       0.00000000       0.50887400 </v>
   <v>       0.50000000       0.50000000       0.50887400 </v>
   <v>       0.25000000       0.25000000       0.75195800 </v>
   <v>       0.75000000       0.75000000       0.75195800 </v>
   <v>       0.25000000       0.25000000       0.25195800 </v>
   <v>       0.25000000       0.75000000       0.25195800 </v>
   <v>       0.75000000       0.25000000       0.25195800 </v>
   <v>       0.25000000       0.75000000       0.75195800 </v>
   <v>       0.75000000       0.25000000       0.75195800 </v>
   <v>       0.75000000       0.75000000       0.25195800 </v>
   <v>       0.25000000       0.25000000       0.52155100 </v>
   <v>       0.25000000       0.75000000       0.02155100 </v>
   <v>       0.75000000       0.25000000       0.02155100 </v>
   <v>       0.25000000       0.75000000       0.52155100 </v>
   <v>       0.75000000       0.25000000       0.52155100 </v>
   <v>       0.75000000       0.75000000       0.02155100 </v>
   <v>       0.75000000       0.75000000       0.52155100 </v>
   <v>       0.25000000       0.00000000       0.26930900 </v>
   <v>       0.50000000       0.25000000       0.26930900 </v>
   <v>       0.25000000       0.50000000       0.26930900 </v>
   <v>       0.00000000       0.25000000       0.26930900 </v>
   <v>       0.25000000       0.00000000       0.76930900 </v>
   <v>       0.50000000       0.25000000       0.76930900 </v>
   <v>       0.25000000       0.50000000       0.76930900 </v>
   <v>       0.00000000       0.25000000       0.76930900 </v>
   <v>       0.75000000       0.00000000       0.26930900 </v>
   <v>       0.50000000       0.75000000       0.26930900 </v>
   <v>       0.75000000       0.50000000       0.26930900 </v>
   <v>       0.00000000       0.75000000       0.26930900 </v>
   <v>       0.75000000       0.00000000       0.76930900 </v>
   <v>       0.50000000       0.75000000       0.76930900 </v>
   <v>       0.75000000       0.50000000       0.76930900 </v>
   <v>       0.00000000       0.75000000       0.76930900 </v>
  </varray>
 </structure>
 <calculation>
  <scstep>
   <time name="dav">   40.95   40.98</time>
   <time name="total">   41.08   41.12</time>
   <energy>
    <i name="alphaZ">   1844.43327880 </i>
    <i name="ewald"> -23336.53827520 </i>
    <i name="hartreedc">  -8708.00241920 </i>
    <i name="XCdc">   1407.26051367 </i>
    <i name="pawpsdc">  25642.25965449 </i>
    <i name="pawaedc"> -25778.45180652 </i>
    <i name="eentropy">     -0.00015652 </i>
    <i name="bandstr">    168.99769806 </i>
    <i name="atom">  32180.85449221 </i>
    <i name="e_fr_energy">   3420.81297979 </i>
    <i name="e_wo_entrp">   3420.81313631 </i>
    <i name="e_0_energy">   3420.81303196 </i>
   </energy>
  </scstep>
  <scstep>
   <time name="dav">   45.58   45.62</time>
   <time name="total">   45.60   45.64</time>
   <energy>
    <i name="e_fr_energy">     65.16481299 </i>
    <i name="e_wo_entrp">     65.16877333 </i>
    <i name="e_0_energy">     65.16613310 </i>
   </energy>
  </scstep>
  <scstep>
   <time name="dav">   55.18   55.26</time>
   <time name="total">   55.20   55.29</time>
   <energy>
    <i name="e_fr_energy">   -309.48371130 </i>
    <i name="e_wo_entrp">   -309.48892848 </i>
    <i name="e_0_energy">   -309.48545036 </i>
   </energy>
  </scstep>
  <scstep>
   <time name="dav">   56.97   57.02</time>
   <time name="total">   56.99   57.05</time>
   <energy>
    <i name="e_fr_energy">   -328.67171563 </i>
    <i name="e_wo_entrp">   -328.67021801 </i>
    <i name="e_0_energy">   -328.67121642 </i>
   </energy>
  </scstep>
  <scstep>
   <time name="dav">   63.76   63.81</time>
   <time name="total">   65.52   65.57</time>
   <energy>
    <i name="e_fr_energy">   -329.94114664 </i>
    <i name="e_wo_entrp">   -329.93988491 </i>
    <i name="e_0_energy">   -329.94072607 </i>
   </energy>
  </scstep>
  <scstep>
   <time name="dav">   52.52   52.56</time>
   <time name="total">   54.34   54.38</time>
   <energy>
    <i name="e_fr_energy">   -270.46800469 </i>
    <i name="e_wo_entrp">   -270.46913287 </i>
    <i name="e_0_energy">   -270.46838075 </i>
   </energy>
  </scstep>
  <scstep>
   <time name="dav">   54.98   55.02</time>
   <time name="total">   56.92   56.97</time>
   <energy>
    <i name="e_fr_energy">   -272.86718370 </i>
    <i name="e_wo_entrp">   -272.85353562 </i>
    <i name="e_0_energy">   -272.86263434 </i>
   </energy>
  </scstep>
  <scstep>
   <time name="dav">   52.65   52.70</time>
   <time name="total">   54.51   54.56</time>
   <energy>
    <i name="e_fr_energy">   -275.18528814 </i>
    <i name="e_wo_entrp">   -275.18230257 </i>
    <i name="e_0_energy">   -275.18429295 </i>
   </energy>
  </scstep>
  <scstep>
   <time name="dav">   51.83   51.87</time>
   <time name="total">   53.65   53.69</time>
   <energy>
    <i name="e_fr_energy">   -273.12478152 </i>
    <i name="e_wo_entrp">   -273.12988969 </i>
    <i name="e_0_energy">   -273.12648425 </i>
   </energy>
  </scstep>
  <scstep>
   <time name="dav">   56.49   56.53</time>
   <time name="total">   58.35   58.39</time>
   <energy>
    <i name="e_fr_energy">   -273.39087409 </i>
    <i name="e_wo_entrp">   -273.40404552 </i>
    <i name="e_0_energy">   -273.39526457 </i>
   </energy>
  </scstep>
  <scstep>
   <time name="dav">   52.73   52.77</time>
   <time name="total">   54.58   54.62</time>
   <energy>
    <i name="e_fr_energy">   -273.55279870 </i>
    <i name="e_wo_entrp">   -273.56588600 </i>
    <i name="e_0_energy">   -273.55716113 </i>
   </energy>
  </scstep>
  <scstep>
   <time name="dav">   52.25   52.29</time>
   <time name="total">   54.10   54.15</time>
   <energy>
    <i name="e_fr_energy">   -273.60967958 </i>
    <i name="e_wo_entrp">   -273.60508260 </i>
    <i name="e_0_energy">   -273.60814725 </i>
   </energy>
  </scstep>
  <scstep>
   <time name="dav">   53.30   53.34</time>
   <time name="total">   55.14   55.18</time>
   <energy>
    <i name="e_fr_energy">   -273.62044708 </i>
    <i name="e_wo_entrp">   -273.61634925 </i>
    <i name="e_0_energy">   -273.61908114 </i>
   </energy>
  </scstep>
  <scstep>
   <time name="dav">   49.44   49.48</time>
   <time name="total">   51.31   51.35</time>
   <energy>
    <i name="e_fr_energy">   -273.63793985 </i>
    <i name="e_wo_entrp">   -273.63363593 </i>
    <i name="e_0_energy">   -273.63650521 </i>
   </energy>
  </scstep>
  <scstep>
   <time name="dav">   50.17   50.22</time>
   <time name="total">   52.05   52.10</time>
   <energy>
    <i name="e_fr_energy">   -273.63796302 </i>
    <i name="e_wo_entrp">   -273.63293838 </i>
    <i name="e_0_energy">   -273.63628814 </i>
   </energy>
  </scstep>
  <scstep>
   <time name="dav">   48.94   48.98</time>
   <time name="total">   50.82   50.86</time>
   <energy>
    <i name="e_fr_energy">   -273.64236848 </i>
    <i name="e_wo_entrp">   -273.63569150 </i>
    <i name="e_0_energy">   -273.64014282 </i>
   </energy>
  </scstep>
  <scstep>
   <time name="dav">   53.64   53.69</time>
   <time name="total">   55.52   55.58</time>
   <energy>
    <i name="e_fr_energy">   -273.64395369 </i>
    <i name="e_wo_entrp">   -273.63745168 </i>
    <i name="e_0_energy">   -273.64178636 </i>
   </energy>
  </scstep>
  <scstep>
   <time name="dav">   50.68   50.72</time>
   <time name="total">   52.57   52.60</time>
   <energy>
    <i name="e_fr_energy">   -273.64451299 </i>
    <i name="e_wo_entrp">   -273.63755848 </i>
    <i name="e_0_energy">   -273.64219482 </i>
   </energy>
  </scstep>
  <scstep>
   <time name="dav">   54.62   54.69</time>
   <time name="total">   56.51   56.58</time>
   <energy>
    <i name="e_fr_energy">   -273.64468157 </i>
    <i name="e_wo_entrp">   -273.63779172 </i>
    <i name="e_0_energy">   -273.64238496 </i>
   </energy>
  </scstep>
  <scstep>
   <time name="dav">   53.75   53.79</time>
   <time name="total">   55.64   55.68</time>
   <energy>
    <i name="e_fr_energy">   -273.64476994 </i>
    <i name="e_wo_entrp">   -273.63805234 </i>
    <i name="e_0_energy">   -273.64253074 </i>
   </energy>
  </scstep>
  <scstep>
   <time name="dav">   52.43   52.47</time>
   <time name="total">   54.31   54.35</time>
   <energy>
    <i name="e_fr_energy">   -273.64481685 </i>
    <i name="e_wo_entrp">   -273.63802004 </i>
    <i name="e_0_energy">   -273.64255124 </i>
   </energy>
  </scstep>
  <scstep>
   <time name="dav">   51.53   51.55</time>
   <time name="total">   53.41   53.45</time>
   <energy>
    <i name="e_fr_energy">   -273.64484941 </i>
    <i name="e_wo_entrp">   -273.63803654 </i>
    <i name="e_0_energy">   -273.64257846 </i>
   </energy>
  </scstep>
  <scstep>
   <time name="dav">   46.52   46.55</time>
   <time name="total">   48.39   48.43</time>
   <energy>
    <i name="e_fr_energy">   -273.64486645 </i>
    <i name="e_wo_entrp">   -273.63806355 </i>
    <i name="e_0_energy">   -273.64259882 </i>
   </energy>
  </scstep>
  <scstep>
   <time name="dav">   46.27   46.30</time>
   <time name="total">   48.16   48.19</time>
   <energy>
    <i name="e_fr_energy">   -273.64488312 </i>
    <i name="e_wo_entrp">   -273.63805804 </i>
    <i name="e_0_energy">   -273.64260809 </i>
   </energy>
  </scstep>
  <scstep>
   <time name="dav">   44.47   44.52</time>
   <time name="total">   46.35   46.39</time>
   <energy>
    <i name="e_fr_energy">   -273.64489525 </i>
    <i name="e_wo_entrp">   -273.63806231 </i>
    <i name="e_0_energy">   -273.64261760 </i>
   </energy>
  </scstep>
  <scstep>
   <time name="dav">   39.74   39.77</time>
   <time name="total">   41.64   41.67</time>
   <energy>
    <i name="e_fr_energy">   -273.64490263 </i>
    <i name="e_wo_entrp">   -273.63807171 </i>
    <i name="e_0_energy">   -273.64262565 </i>
   </energy>
  </scstep>
  <scstep>
   <time name="dav">   39.13   39.15</time>
   <time name="total">   41.02   41.05</time>
   <energy>
    <i name="e_fr_energy">   -273.64490794 </i>
    <i name="e_wo_entrp">   -273.63809437 </i>
    <i name="e_0_energy">   -273.64263675 </i>
   </energy>
  </scstep>
  <scstep>
   <time name="dav">   37.20   37.23</time>
   <time name="total">   39.10   39.13</time>
   <energy>
    <i name="e_fr_energy">   -273.64491124 </i>
    <i name="e_wo_entrp">   -273.63809688 </i>
    <i name="e_0_energy">   -273.64263979 </i>
   </energy>
  </scstep>
  <scstep>
   <time name="dav">   34.27   34.30</time>
   <time name="total">   36.16   36.20</time>
   <energy>
    <i name="e_fr_energy">   -273.64491308 </i>
    <i name="e_wo_entrp">   -273.63809741 </i>
    <i name="e_0_energy">   -273.64264119 </i>
   </energy>
  </scstep>
  <scstep>
   <time name="dav">   32.87   32.89</time>
   <time name="total">   34.76   34.78</time>
   <energy>
    <i name="e_fr_energy">   -273.64491410 </i>
    <i name="e_wo_entrp">   -273.63809956 </i>
    <i name="e_0_energy">   -273.64264259 </i>
   </energy>
  </scstep>
  <scstep>
   <time name="dav">   30.81   30.84</time>
   <time name="total">   30.94   30.97</time>
   <energy>
    <i name="alphaZ">   1844.43327880 </i>
    <i name="ewald"> -23336.53827520 </i>
    <i name="hartreedc">  -8724.23041293 </i>
    <i name="XCdc">   1415.46993929 </i>
    <i name="pawpsdc">  30794.00643979 </i>
    <i name="pawaedc"> -30936.17652457 </i>
    <i name="eentropy">     -0.00681430 </i>
    <i name="bandstr">  -3511.45703768 </i>
    <i name="atom">  32180.85449221 </i>
    <i name="e_fr_energy">   -273.64491458 </i>
    <i name="e_wo_entrp">   -273.63810028 </i>
    <i name="e_0_energy">   -273.64264315 </i>
   </energy>
  </scstep>
  <structure>
   <crystal>
    <varray name="basis" >
     <v>       8.04965000       0.00000000       0.00000000 </v>
     <v>       0.00000000       8.04965000       0.00000000 </v>
     <v>       0.00000000       0.00000000       8.22089200 </v>
    </varray>
    <i name="volume">    532.68803011 </i>
    <varray name="rec_basis" >
     <v>       0.12422900       0.00000000       0.00000000 </v>
     <v>       0.00000000       0.12422900       0.00000000 </v>
     <v>       0.00000000       0.00000000       0.12164130 </v>
    </varray>
   </crystal>
   <varray name="positions" >
    <v>       0.00000000       0.00000000       0.00887400 </v>
    <v>       0.50000000       0.00000000       0.00887400 </v>
    <v>       0.50000000       0.50000000       0.00887400 </v>
    <v>       0.00000000       0.50000000       0.50887400 </v>
    <v>       0.00000000       0.50000000       0.00887400 </v>
    <v>       0.00000000       0.00000000       0.50887400 </v>
    <v>       0.50000000       0.00000000       0.50887400 </v>
    <v>       0.50000000       0.50000000       0.50887400 </v>
    <v>       0.25000000       0.25000000       0.75195800 </v>
    <v>       0.75000000       0.75000000       0.75195800 </v>
    <v>       0.25000000       0.25000000       0.25195800 </v>
    <v>       0.25000000       0.75000000       0.25195800 </v>
    <v>       0.75000000       0.25000000       0.25195800 </v>
    <v>       0.25000000       0.75000000       0.75195800 </v>
    <v>       0.75000000       0.25000000       0.75195800 </v>
    <v>       0.75000000       0.75000000       0.25195800 </v>
    <v>       0.25000000       0.25000000       0.52155100 </v>
    <v>       0.25000000       0.75000000       0.02155100 </v>
    <v>       0.75000000       0.25000000       0.02155100 </v>
    <v>       0.25000000       0.75000000       0.52155100 </v>
    <v>       0.75000000       0.25000000       0.52155100 </v>
    <v>       0.75000000       0.75000000       0.02155100 </v>
    <v>       0.75000000       0.75000000       0.52155100 </v>
    <v>       0.25000000       0.00000000       0.26930900 </v>
    <v>       0.50000000       0.25000000       0.26930900 </v>
    <v>       0.25000000       0.50000000       0.26930900 </v>
    <v>       0.00000000       0.25000000       0.26930900 </v>
    <v>       0.25000000       0.00000000       0.76930900 </v>
    <v>       0.50000000       0.25000000       0.76930900 </v>
    <v>       0.25000000       0.50000000       0.76930900 </v>
    <v>       0.00000000       0.25000000       0.76930900 </v>
    <v>       0.75000000       0.00000000       0.26930900 </v>
    <v>       0.50000000       0.75000000       0.26930900 </v>
    <v>       0.75000000       0.50000000       0.26930900 </v>
    <v>       0.00000000       0.75000000       0.26930900 </v>
    <v>       0.75000000       0.00000000       0.76930900 </v>
    <v>       0.50000000       0.75000000       0.76930900 </v>
    <v>       0.75000000       0.50000000       0.76930900 </v>
    <v>       0.00000000       0.75000000       0.76930900 </v>
   </varray>
  </structure>
  <varray name="forces" >
   <v>      -0.39282625      -0.41125190      -2.03693036 </v>
   <v>       0.39220128      -0.39220128      -1.99536120 </v>
   <v>       0.41125190       0.39282625      -2.03693036 </v>
   <v>      -0.22190210       0.22190210       1.86531660 </v>
   <v>      -0.22550682       0.22550682      -0.91200782 </v>
   <v>      -0.09289142      -0.09307640       0.79221590 </v>
   <v>       0.09379325      -0.09379325       0.78227732 </v>
   <v>       0.09307640       0.09289142       0.79221590 </v>
   <v>       0.00106442      -0.00106442       0.16851049 </v>
   <v>       0.02435234      -0.02435234       0.72636801 </v>
   <v>       0.03057417      -0.03057417       7.60618136 </v>
   <v>       0.00112584       0.04096533       2.35599522 </v>
   <v>      -0.04096533      -0.00112584       2.35599522 </v>
   <v>      -0.07892346      -0.03632150       0.01965070 </v>
   <v>       0.03632150       0.07892346       0.01965070 </v>
   <v>       0.00311356      -0.00311356       3.98472561 </v>
   <v>      -0.15243518       0.15243518      -4.56138108 </v>
   <v>       0.11684904       0.12058699       0.69952022 </v>
   <v>      -0.12058699      -0.11684904       0.69952022 </v>
   <v>      -0.14106113      -0.16316152      -2.37771541 </v>
   <v>       0.16316152       0.14106113      -2.37771541 </v>
   <v>      -0.17467941       0.17467941       0.87468361 </v>
   <v>       0.23532029      -0.23532029      -3.63952785 </v>
   <v>      -0.01226613       0.62797959      -1.37068396 </v>
   <v>      -0.62797959       0.01226613      -1.37068396 </v>
   <v>      -0.00124487      -0.67580898      -1.24680793 </v>
   <v>       0.67580898       0.00124487      -1.24680793 </v>
   <v>       0.02236735      -0.80228562       0.96962345 </v>
   <v>       0.80228562      -0.02236735       0.96962345 </v>
   <v>       0.05879571       0.85074462       0.46880486 </v>
   <v>      -0.85074462      -0.05879571       0.46880486 </v>
   <v>       0.00036847       0.82054506      -0.83023863 </v>
   <v>      -0.82054506      -0.00036847      -0.83023863 </v>
   <v>      -0.02953163      -0.83131932      -0.61441372 </v>
   <v>       0.83131932       0.02953163      -0.61441372 </v>
   <v>      -0.01878250       1.33681580       0.62622956 </v>
   <v>      -1.33681580       0.01878250       0.62622956 </v>
   <v>      -0.05858889      -1.40512622       0.09485758 </v>
   <v>       1.40512622       0.05858889       0.09485758 </v>
  </varray>
  <varray name="stress" >
   <v>      23.07968616       1.22459937       0.11925762 </v>
   <v>       1.22459937      23.07968616      -0.11925762 </v>
   <v>       0.11925766      -0.11925766       1.91126194 </v>
  </varray>
  <energy>
   <i name="e_fr_energy">   -273.64491458 </i>
   <i name="e_wo_entrp">   -273.64264315 </i>
   <i name="e_0_energy">     -0.00681430 </i>
  </energy>
  <time name="totalsc"> 1591.94 1593.31</time>
 </calculation>
 <calculation>
  <scstep>
   <time name="dav">   46.84   46.87</time>
   <time name="total">   48.66   48.70</time>
   <energy>
    <i name="alphaZ">   1808.48967364 </i>
    <i name="ewald"> -23099.66688101 </i>
    <i name="hartreedc">  -8733.02604516 </i>
    <i name="XCdc">   1407.88641656 </i>
    <i name="pawpsdc">  30793.96030764 </i>
    <i name="pawaedc"> -30936.13106623 </i>
    <i name="eentropy">      0.00297308 </i>
    <i name="bandstr">  -3681.75637567 </i>
    <i name="atom">  32180.85449221 </i>
    <i name="e_fr_energy">   -259.38650494 </i>
    <i name="e_wo_entrp">   -259.38947802 </i>
    <i name="e_0_energy">   -259.38749597 </i>
   </energy>
  </scstep>
  <scstep>
   <time name="dav">   47.31   47.34</time>
   <time name="total">   49.13   49.17</time>
   <energy>
    <i name="e_fr_energy">   -278.60134405 </i>
    <i name="e_wo_entrp">   -278.60209614 </i>
    <i name="e_0_energy">   -278.60159475 </i>
   </energy>
  </scstep>
  <scstep>
   <time name="dav">   55.09   55.13</time>
   <time name="total">   56.86   56.90</time>
   <energy>
    <i name="e_fr_energy">   -278.84278999 </i>
    <i name="e_wo_entrp">   -278.84522348 </i>
    <i name="e_0_energy">   -278.84360116 </i>
   </energy>
  </scstep>
  <scstep>
   <time name="dav">   55.97   56.01</time>
   <time name="total">   57.75   57.79</time>
   <energy>
    <i name="e_fr_energy">   -278.60911964 </i>
    <i name="e_wo_entrp">   -278.61087640 </i>
    <i name="e_0_energy">   -278.60970523 </i>
   </energy>
  </scstep>
  <scstep>
   <time name="dav">   54.25   54.29</time>
   <time name="total">   56.04   56.08</time>
   <energy>
    <i name="e_fr_energy">   -278.41144127 </i>
    <i name="e_wo_entrp">   -278.41254976 </i>
    <i name="e_0_energy">   -278.41181077 </i>
   </energy>
  </scstep>
  <scstep>
   <time name="dav">   61.67   61.75</time>
   <time name="total">   63.46   63.55</time>
   <energy>
    <i name="e_fr_energy">   -278.39337326 </i>
    <i name="e_wo_entrp">   -278.39479278 </i>
    <i name="e_0_energy">   -278.39384643 </i>
   </energy>
  </scstep>
  <scstep>
   <time name="dav">   52.64   52.69</time>
   <time name="total">   54.43   54.48</time>
   <energy>
    <i name="e_fr_energy">   -278.39593203 </i>
    <i name="e_wo_entrp">   -278.39719930 </i>
    <i name="e_0_energy">   -278.39635445 </i>
   </energy>
  </scstep>
  <scstep>
   <time name="dav">   54.54   54.58</time>
   <time name="total">   56.32   56.37</time>
   <energy>
    <i name="e_fr_energy">   -278.39822481 </i>
    <i name="e_wo_entrp">   -278.39955084 </i>
    <i name="e_0_energy">   -278.39866682 </i>
   </energy>
  </scstep>
  <scstep>
   <time name="dav">   55.07   55.13</time>
   <time name="total">   56.85   56.91</time>
   <energy>
    <i name="e_fr_energy">   -278.39854728 </i>
    <i name="e_wo_entrp">   -278.39985525 </i>
    <i name="e_0_energy">   -278.39898327 </i>
   </energy>
  </scstep>
  <scstep>
   <time name="dav">   53.88   53.91</time>
   <time name="total">   55.66   55.70</time>
   <energy>
    <i name="e_fr_energy">   -278.39864227 </i>
    <i name="e_wo_entrp">   -278.39993086 </i>
    <i name="e_0_energy">   -278.39907180 </i>
   </energy>
  </scstep>
  <scstep>
   <time name="dav">   53.67   53.71</time>
   <time name="total">   55.46   55.50</time>
   <energy>
    <i name="e_fr_energy">   -278.39868899 </i>
    <i name="e_wo_entrp">   -278.39998692 </i>
    <i name="e_0_energy">   -278.39912163 </i>
   </energy>
  </scstep>
  <scstep>
   <time name="dav">   46.38   46.41</time>
   <time name="total">   48.16   48.20</time>
   <energy>
    <i name="e_fr_energy">   -278.39871426 </i>
    <i name="e_wo_entrp">   -278.40000993 </i>
    <i name="e_0_energy">   -278.39914615 </i>
   </energy>
  </scstep>
  <scstep>
   <time name="dav">   46.92   46.95</time>
   <time name="total">   48.70   48.74</time>
   <energy>
    <i name="e_fr_energy">   -278.39872191 </i>
    <i name="e_wo_entrp">   -278.40001425 </i>
    <i name="e_0_energy">   -278.39915269 </i>
   </energy>
  </scstep>
  <scstep>
   <time name="dav">   41.95   41.98</time>
   <time name="total">   43.74   43.77</time>
   <energy>
    <i name="e_fr_energy">   -278.39872743 </i>
    <i name="e_wo_entrp">   -278.40001802 </i>
    <i name="e_0_energy">   -278.39915763 </i>
   </energy>
  </scstep>
  <scstep>
   <time name="dav">   36.51   36.54</time>
   <time name="total">   38.30   38.33</time>
   <energy>
    <i name="e_fr_energy">   -278.39873122 </i>
    <i name="e_wo_entrp">   -278.40002241 </i>
    <i name="e_0_energy">   -278.39916162 </i>
   </energy>
  </scstep>
  <scstep>
   <time name="dav">   37.15   37.18</time>
   <time name="total">   38.93   38.96</time>
   <energy>
    <i name="e_fr_energy">   -278.39873531 </i>
    <i name="e_wo_entrp">   -278.40002652 </i>
    <i name="e_0_energy">   -278.39916571 </i>
   </energy>
  </scstep>
  <scstep>
   <time name="dav">   36.94   36.98</time>
   <time name="total">   38.73   38.76</time>
   <energy>
    <i name="e_fr_energy">   -278.39873788 </i>
    <i name="e_wo_entrp">   -278.40002911 </i>
    <i name="e_0_energy">   -278.39916829 </i>
   </energy>
  </scstep>
  <scstep>
   <time name="dav">   34.88   34.91</time>
   <time name="total">   36.67   36.71</time>
   <energy>
    <i name="e_fr_energy">   -278.39874027 </i>
    <i name="e_wo_entrp">   -278.40003086 </i>
    <i name="e_0_energy">   -278.39917047 </i>
   </energy>
  </scstep>
  <scstep>
   <time name="dav">   39.22   39.25</time>
   <time name="total">   41.01   41.04</time>
   <energy>
    <i name="e_fr_energy">   -278.39874217 </i>
    <i name="e_wo_entrp">   -278.40003252 </i>
    <i name="e_0_energy">   -278.39917228 </i>
   </energy>
  </scstep>
  <scstep>
   <time name="dav">   40.71   40.75</time>
   <time name="total">   40.83   40.87</time>
   <energy>
    <i name="alphaZ">   1808.48967364 </i>
    <i name="ewald"> -23099.66688101 </i>
    <i name="hartreedc">  -8884.74304021 </i>
    <i name="XCdc">   1416.61534309 </i>
    <i name="pawpsdc">  31024.72050718 </i>
    <i name="pawaedc"> -31164.71380924 </i>
    <i name="eentropy">      0.00129056 </i>
    <i name="bandstr">  -3559.95631919 </i>
    <i name="atom">  32180.85449221 </i>
    <i name="e_fr_energy">   -278.39874296 </i>
    <i name="e_wo_entrp">   -278.40003352 </i>
    <i name="e_0_energy">   -278.39917315 </i>
   </energy>
  </scstep>
  <structure>
   <crystal>
    <varray name="basis" >
     <v>       8.12605747       0.00405415       0.00039481 </v>
     <v>       0.00405415       8.12605747      -0.00039481 </v>
     <v>       0.00040321      -0.00040321       8.22735402 </v>
    </varray>
    <i name="volume">    543.27516727 </i>
    <varray name="rec_basis" >
     <v>       0.12306094      -0.00006140      -0.00000603 </v>
     <v>      -0.00006140       0.12306094       0.00000603 </v>
     <v>      -0.00000591       0.00000591       0.12154576 </v>
    </varray>
   </crystal>
   <varray name="positions" >
    <v>      -0.00235426      -0.00246469      -0.00307932 </v>
    <v>       0.50235052      -0.00235052      -0.00283538 </v>
    <v>       0.50246469       0.50235426      -0.00307932 </v>
    <v>      -0.00132989       0.50132989       0.51982024 </v>
    <v>      -0.00135149       0.50135149       0.00352207 </v>
    <v>      -0.00055671      -0.00055782       0.51352296 </v>
    <v>       0.50056212      -0.00056212       0.51346464 </v>
    <v>       0.50055782       0.50055671       0.51352296 </v>
    <v>       0.25000638       0.24999362       0.75294687 </v>
    <v>       0.75014595       0.74985405       0.75622054 </v>
    <v>       0.25018324       0.24981676       0.29659335 </v>
    <v>       0.25000675       0.75024551       0.26578368 </v>
    <v>       0.74975449       0.24999325       0.26578368 </v>
    <v>       0.24952700       0.74978232       0.75207332 </v>
    <v>       0.75021768       0.25047300       0.75207332 </v>
    <v>       0.75001866       0.74998134       0.27534156 </v>
    <v>       0.24908644       0.25091356       0.49478345 </v>
    <v>       0.25070029       0.75072269       0.02565599 </v>
    <v>       0.74927731       0.24929971       0.02565599 </v>
    <v>       0.24915460       0.74902215       0.50759785 </v>
    <v>       0.75097785       0.25084540       0.50759785 </v>
    <v>       0.74895312       0.75104688       0.02668391 </v>
    <v>       0.75141031       0.74858969       0.50019316 </v>
    <v>       0.24992649       0.00376357       0.26126542 </v>
    <v>       0.49623643       0.25007351       0.26126542 </v>
    <v>       0.24999254       0.49594978       0.26199236 </v>
    <v>       0.00405022       0.25000746       0.26199236 </v>
    <v>       0.25013405      -0.00480821       0.77499904 </v>
    <v>       0.50480821       0.24986595       0.77499904 </v>
    <v>       0.25035237       0.50509863       0.77206009 </v>
    <v>      -0.00509863       0.24964763       0.77206009 </v>
    <v>       0.75000221       0.00491764       0.26443691 </v>
    <v>       0.49508236       0.74999779       0.26443691 </v>
    <v>       0.74982301       0.49501779       0.26570344 </v>
    <v>       0.00498221       0.75017699       0.26570344 </v>
    <v>       0.74988743       0.00801172       0.77298390 </v>
    <v>       0.49198828       0.75011257       0.77298390 </v>
    <v>       0.74964887       0.49157889       0.76986565 </v>
    <v>       0.00842111       0.75035113       0.76986565 </v>
   </varray>
  </structure>
  <varray name="forces" >
   <v>      -0.56687611      -0.57058541      -0.34606828 </v>
   <v>       0.56194454      -0.56194454      -0.33394240 </v>
   <v>       0.57058541       0.56687611      -0.34606828 </v>
   <v>      -0.48469241       0.48469241       1.06674016 </v>
   <v>      -0.28958143       0.28958143      -0.18855938 </v>
   <v>      -0.24229649      -0.21937514       0.54261866 </v>
   <v>       0.24480528      -0.24480528       0.56313730 </v>
   <v>       0.21937514       0.24229649       0.54261866 </v>
   <v>      -0.01002265       0.01002265      -0.40050889 </v>
   <v>      -0.00727408       0.00727408       0.72067906 </v>
   <v>       0.22753109      -0.22753109      -7.72249320 </v>
   <v>       0.11748211       0.01413855      -1.36233216 </v>
   <v>      -0.01413855      -0.11748211      -1.36233216 </v>
   <v>       0.11873386       0.03737970       0.94889014 </v>
   <v>      -0.03737970      -0.11873386       0.94889014 </v>
   <v>      -0.16347969       0.16347969      -2.57354708 </v>
   <v>      -0.03620871       0.03620871       8.61349730 </v>
   <v>       0.07168590       0.09847849       0.35254065 </v>
   <v>      -0.09847849      -0.07168590       0.35254065 </v>
   <v>      -0.08434246      -0.11612192       0.04163270 </v>
   <v>       0.11612192       0.08434246       0.04163270 </v>
   <v>      -0.17550358       0.17550358       1.11119461 </v>
   <v>       0.11974222      -0.11974222       0.80524480 </v>
   <v>       0.00594407       0.41423301      -0.33353681 </v>
   <v>      -0.41423301      -0.00594407      -0.33353681 </v>
   <v>      -0.04049251      -0.33750769      -0.11161018 </v>
   <v>       0.33750769       0.04049251      -0.11161018 </v>
   <v>      -0.00367088       0.23201421       0.06345289 </v>
   <v>      -0.23201421       0.00367088       0.06345289 </v>
   <v>      -0.03623534      -0.22355012      -0.28639705 </v>
   <v>       0.22355012       0.03623534      -0.28639705 </v>
   <v>       0.00611652      -0.25311286       0.15216292 </v>
   <v>       0.25311286      -0.00611652       0.15216292 </v>
   <v>       0.04765599       0.26594674       0.28507675 </v>
   <v>      -0.26594674      -0.04765599       0.28507675 </v>
   <v>       0.00077550       0.56116844      -0.22451351 </v>
   <v>      -0.56116844      -0.00077550      -0.22451351 </v>
   <v>       0.03822101      -0.48314424      -0.55263784 </v>
   <v>       0.48314424      -0.03822101      -0.55263784 </v>
  </varray>
  <varray name="stress" >
   <v>       5.99673863      -1.59582730      -0.61642812 </v>
   <v>      -1.59582730       5.99673863       0.61642812 </v>
   <v>      -0.61642825       0.61642825      53.07374797 </v>
  </varray>
  <energy>
   <i name="e_fr_energy">   -278.39874296 </i>
   <i name="e_wo_entrp">   -278.39917315 </i>
   <i name="e_0_energy">      0.00129056 </i>
  </energy>
  <time name="totalsc"> 1022.77 1023.63</time>
 </calculation>
 <calculation>
  <scstep>
   <time name="dav">   43.46   43.50</time>
   <time name="total">   45.27   45.31</time>
   <energy>
    <i name="alphaZ">   1783.58028085 </i>
    <i name="ewald"> -23036.15547134 </i>
    <i name="hartreedc">  -8808.66620413 </i>
    <i name="XCdc">   1409.53567859 </i>
    <i name="pawpsdc">  31024.70293257 </i>
    <i name="pawaedc"> -31164.69594973 </i>
    <i name="eentropy">      0.00271662 </i>
    <i name="bandstr">  -3663.43619941 </i>
    <i name="atom">  32180.85449221 </i>
    <i name="e_fr_energy">   -274.27772377 </i>
    <i name="e_wo_entrp">   -274.28044039 </i>
    <i name="e_0_energy">   -274.27862931 </i>
   </energy>
  </scstep>
  <scstep>
   <time name="dav">   46.79   46.85</time>
   <time name="total">   48.61   48.67</time>
   <energy>
    <i name="e_fr_energy">   -278.30794192 </i>
    <i name="e_wo_entrp">   -278.31151267 </i>
    <i name="e_0_energy">   -278.30913217 </i>
   </energy>
  </scstep>
  <scstep>
   <time name="dav">   52.52   52.57</time>
   <time name="total">   54.34   54.39</time>
   <energy>
    <i name="e_fr_energy">   -278.38845037 </i>
    <i name="e_wo_entrp">   -278.39111783 </i>
    <i name="e_0_energy">   -278.38933952 </i>
   </energy>
  </scstep>
  <scstep>
   <time name="dav">   54.54   54.58</time>
   <time name="total">   56.33   56.39</time>
   <energy>
    <i name="e_fr_energy">   -278.30721678 </i>
    <i name="e_wo_entrp">   -278.30977319 </i>
    <i name="e_0_energy">   -278.30806892 </i>
   </energy>
  </scstep>
  <scstep>
   <time name="dav">   55.01   55.09</time>
   <time name="total">   56.81   56.90</time>
   <energy>
    <i name="e_fr_energy">   -278.26237358 </i>
    <i name="e_wo_entrp">   -278.26517472 </i>
    <i name="e_0_energy">   -278.26330730 </i>
   </energy>
  </scstep>
  <scstep>
   <time name="dav">   52.71   52.75</time>
   <time name="total">   54.50   54.54</time>
   <energy>
    <i name="e_fr_energy">   -278.26497769 </i>
    <i name="e_wo_entrp">   -278.26764502 </i>
    <i name="e_0_energy">   -278.26586680 </i>
   </energy>
  </scstep>
  <scstep>
   <time name="dav">   63.74   63.80</time>
   <time name="total">   65.52   65.58</time>
   <energy>
    <i name="e_fr_energy">   -278.26605443 </i>
    <i name="e_wo_entrp">   -278.26874025 </i>
    <i name="e_0_energy">   -278.26694970 </i>
   </energy>
  </scstep>
  <scstep>
   <time name="dav">   53.08   53.12</time>
   <time name="total">   54.85   54.89</time>
   <energy>
    <i name="e_fr_energy">   -278.26617501 </i>
    <i name="e_wo_entrp">   -278.26884639 </i>
    <i name="e_0_energy">   -278.26706547 </i>
   </energy>
  </scstep>
  <scstep>
   <time name="dav">   51.34   51.38</time>
   <time name="total">   53.12   53.16</time>
   <energy>
    <i name="e_fr_energy">   -278.26618408 </i>
    <i name="e_wo_entrp">   -278.26886181 </i>
    <i name="e_0_energy">   -278.26707666 </i>
   </energy>
  </scstep>
  <scstep>
   <time name="dav">   55.11   55.15</time>
   <time name="total">   56.89   56.93</time>
   <energy>
    <i name="e_fr_energy">   -278.26618860 </i>
    <i name="e_wo_entrp">   -278.26887402 </i>
    <i name="e_0_energy">   -278.26708374 </i>
   </energy>
  </scstep>
  <scstep>
   <time name="dav">   52.67   52.70</time>
   <time name="total">   54.45   54.49</time>
   <energy>
    <i name="e_fr_energy">   -278.26619011 </i>
    <i name="e_wo_entrp">   -278.26886922 </i>
    <i name="e_0_energy">   -278.26708315 </i>
   </energy>
  </scstep>
  <scstep>
   <time name="dav">   40.88   40.92</time>
   <time name="total">   41.00   41.04</time>
   <energy>
    <i name="alphaZ">   1783.58028085 </i>
    <i name="ewald"> -23036.15547134 </i>
    <i name="hartreedc">  -8889.17679481 </i>
    <i name="XCdc">   1413.75483073 </i>
    <i name="pawpsdc">  30392.08846318 </i>
    <i name="pawaedc"> -30534.86089732 </i>
    <i name="eentropy">      0.00267920 </i>
    <i name="bandstr">  -3588.35377345 </i>
    <i name="atom">  32180.85449221 </i>
    <i name="e_fr_energy">   -278.26619075 </i>
    <i name="e_wo_entrp">   -278.26886995 </i>
    <i name="e_0_energy">   -278.26708382 </i>
   </energy>
  </scstep>
  <structure>
   <crystal>
    <varray name="basis" >
     <v>       8.13649235       0.00128214      -0.00067295 </v>
     <v>       0.00128214       8.13649235       0.00067295 </v>
     <v>      -0.00068229       0.00068229       8.32087123 </v>
    </varray>
    <i name="volume">    550.86252102 </i>
    <varray name="rec_basis" >
     <v>       0.12290309      -0.00001937       0.00001008 </v>
     <v>      -0.00001937       0.12290309      -0.00001008 </v>
     <v>       0.00000994      -0.00000994       0.12017972 </v>
    </varray>
   </crystal>
   <varray name="positions" >
    <v>      -0.00407171      -0.00419349      -0.00411544 </v>
    <v>       0.50405483      -0.00405483      -0.00383535 </v>
    <v>       0.50419349       0.50407171      -0.00411544 </v>
    <v>      -0.00280003       0.50280003       0.52301416 </v>
    <v>      -0.00222971       0.50222971       0.00295761 </v>
    <v>      -0.00129093      -0.00122236       0.51514755 </v>
    <v>       0.50130448      -0.00130448       0.51515058 </v>
    <v>       0.50122236       0.50129093       0.51514755 </v>
    <v>       0.24997604       0.25002396       0.75174776 </v>
    <v>       0.75012378       0.74987622       0.75837824 </v>
    <v>       0.25087444       0.24912556       0.27347238 </v>
    <v>       0.25036305       0.75028799       0.26170489 </v>
    <v>       0.74971201       0.24963695       0.26170489 </v>
    <v>       0.24988672       0.74989559       0.75491425 </v>
    <v>       0.75010441       0.25011328       0.75491425 </v>
    <v>       0.74952324       0.75047676       0.26763649 </v>
    <v>       0.24897534       0.25102466       0.52057200 </v>
    <v>       0.25091739       0.75102116       0.02671149 </v>
    <v>       0.74897884       0.24908261       0.02671149 </v>
    <v>       0.24889910       0.74867029       0.50772250 </v>
    <v>       0.75132971       0.25110090       0.50772250 </v>
    <v>       0.74842069       0.75157931       0.03001084 </v>
    <v>       0.75177334       0.74822666       0.50260400 </v>
    <v>       0.24994393       0.00501917       0.26026688 </v>
    <v>       0.49498083       0.25005607       0.26026688 </v>
    <v>       0.24987032       0.49492674       0.26165816 </v>
    <v>       0.00507326       0.25012968       0.26165816 </v>
    <v>       0.25012256      -0.00410489       0.77518905 </v>
    <v>       0.50410489       0.24987744       0.77518905 </v>
    <v>       0.25024291       0.50442100       0.77120260 </v>
    <v>      -0.00442100       0.24975709       0.77120260 </v>
    <v>       0.75002111       0.00415039       0.26489244 </v>
    <v>       0.49584961       0.74997889       0.26489244 </v>
    <v>       0.74996703       0.49582392       0.26655698 </v>
    <v>       0.00417608       0.75003297       0.26655698 </v>
    <v>       0.74988897       0.00971275       0.77231180 </v>
    <v>       0.49028725       0.75011103       0.77231180 </v>
    <v>       0.74976554       0.49011420       0.76821100 </v>
    <v>       0.00988580       0.75023446       0.76821100 </v>
   </varray>
  </structure>
  <varray name="forces" >
   <v>      -0.39906268      -0.45535600      -0.65377280 </v>
   <v>       0.38924911      -0.38924911      -0.64951695 </v>
   <v>       0.45535600       0.39906268      -0.65377280 </v>
   <v>      -0.10596656       0.10596656       0.80418060 </v>
   <v>      -0.25132157       0.25132157      -0.30792205 </v>
   <v>      -0.08452653      -0.06688998       0.46899402 </v>
   <v>       0.09103075      -0.09103075       0.49584057 </v>
   <v>       0.06688998       0.08452653       0.46899402 </v>
   <v>       0.00265442      -0.00265442      -0.14119876 </v>
   <v>       0.01702509      -0.01702509       0.06302192 </v>
   <v>      -0.16409891       0.16409891       6.71967460 </v>
   <v>      -0.09368903      -0.15931866       0.26516492 </v>
   <v>       0.15931866       0.09368903       0.26516492 </v>
   <v>      -0.03621557      -0.03823197      -0.26410109 </v>
   <v>       0.03823197       0.03621557      -0.26410109 </v>
   <v>       0.04923026      -0.04923026       0.92465253 </v>
   <v>      -0.05290989       0.05290989      -4.82085769 </v>
   <v>       0.06521879       0.08574356       0.29360755 </v>
   <v>      -0.08574356      -0.06521879       0.29360755 </v>
   <v>      -0.03315332      -0.06850280      -0.34149814 </v>
   <v>       0.06850280       0.03315332      -0.34149814 </v>
   <v>      -0.13212557       0.13212557       0.53189875 </v>
   <v>       0.07471657      -0.07471657      -1.02123036 </v>
   <v>       0.02461660       0.48239821      -0.81066316 </v>
   <v>      -0.48239821      -0.02461660      -0.81066316 </v>
   <v>       0.00944503      -0.45930549      -0.65408636 </v>
   <v>       0.45930549      -0.00944503      -0.65408636 </v>
   <v>       0.01341451      -0.25013166       0.50270870 </v>
   <v>       0.25013166      -0.01341451       0.50270870 </v>
   <v>       0.01493949       0.33634283       0.17645582 </v>
   <v>      -0.33634283      -0.01493949       0.17645582 </v>
   <v>      -0.02241564       0.03247390      -0.18438640 </v>
   <v>      -0.03247390       0.02241564      -0.18438640 </v>
   <v>      -0.00923418      -0.05855995      -0.11642151 </v>
   <v>       0.05855995       0.00923418      -0.11642151 </v>
   <v>      -0.01829672       0.09987632       0.15486254 </v>
   <v>      -0.09987632       0.01829672       0.15486254 </v>
   <v>      -0.00819117      -0.14020503      -0.13613567 </v>
   <v>       0.14020503       0.00819117      -0.13613567 </v>
  </varray>
  <varray name="stress" >
   <v>      -4.84796503       0.55456837      -0.27906398 </v>
   <v>       0.55456837      -4.84796503       0.27906398 </v>
   <v>      -0.27906393       0.27906393     -42.33138582 </v>
  </varray>
  <energy>
   <i name="e_fr_energy">   -278.26619075 </i>
   <i name="e_wo_entrp">   -278.26708382 </i>
   <i name="e_0_energy">      0.00267920 </i>
  </energy>
  <time name="totalsc">  677.72  678.37</time>
 </calculation>
 <calculation>
  <scstep>
   <time name="dav">   42.02   42.05</time>
   <time name="total">   43.83   43.87</time>
   <energy>
    <i name="alphaZ">   1798.62158330 </i>
    <i name="ewald"> -23055.74129003 </i>
    <i name="hartreedc">  -8953.17146544 </i>
    <i name="XCdc">   1418.13293401 </i>
    <i name="pawpsdc">  30392.11862114 </i>
    <i name="pawaedc"> -30534.89710476 </i>
    <i name="eentropy">      0.00268680 </i>
    <i name="bandstr">  -3524.52649659 </i>
    <i name="atom">  32180.85449221 </i>
    <i name="e_fr_energy">   -278.60603937 </i>
    <i name="e_wo_entrp">   -278.60872617 </i>
    <i name="e_0_energy">   -278.60693497 </i>
   </energy>
  </scstep>
  <scstep>
   <time name="dav">   44.08   44.11</time>
   <time name="total">   45.91   45.94</time>
   <energy>
    <i name="e_fr_energy">   -279.40127688 </i>
    <i name="e_wo_entrp">   -279.40411886 </i>
    <i name="e_0_energy">   -279.40222421 </i>
   </energy>
  </scstep>
  <scstep>
   <time name="dav">   53.37   53.41</time>
   <time name="total">   55.22   55.26</time>
   <energy>
    <i name="e_fr_energy">   -279.43669848 </i>
    <i name="e_wo_entrp">   -279.43980255 </i>
    <i name="e_0_energy">   -279.43773317 </i>
   </energy>
  </scstep>
  <scstep>
   <time name="dav">   56.84   56.89</time>
   <time name="total">   58.67   58.72</time>
   <energy>
    <i name="e_fr_energy">   -279.41763517 </i>
    <i name="e_wo_entrp">   -279.42070395 </i>
    <i name="e_0_energy">   -279.41865809 </i>
   </energy>
  </scstep>
  <scstep>
   <time name="dav">   57.54   57.58</time>
   <time name="total">   59.36   59.40</time>
   <energy>
    <i name="e_fr_energy">   -279.40960976 </i>
    <i name="e_wo_entrp">   -279.41258895 </i>
    <i name="e_0_energy">   -279.41060282 </i>
   </energy>
  </scstep>
  <scstep>
   <time name="dav">   57.47   57.51</time>
   <time name="total">   59.26   59.31</time>
   <energy>
    <i name="e_fr_energy">   -279.40993132 </i>
    <i name="e_wo_entrp">   -279.41296082 </i>
    <i name="e_0_energy">   -279.41094116 </i>
   </energy>
  </scstep>
  <scstep>
   <time name="dav">   59.48   59.53</time>
   <time name="total">   61.26   61.31</time>
   <energy>
    <i name="e_fr_energy">   -279.41023706 </i>
    <i name="e_wo_entrp">   -279.41324081 </i>
    <i name="e_0_energy">   -279.41123831 </i>
   </energy>
  </scstep>
  <scstep>
   <time name="dav">   52.42   52.51</time>
   <time name="total">   54.21   54.30</time>
   <energy>
    <i name="e_fr_energy">   -279.41036503 </i>
    <i name="e_wo_entrp">   -279.41336929 </i>
    <i name="e_0_energy">   -279.41136645 </i>
   </energy>
  </scstep>
  <scstep>
   <time name="dav">   55.84   55.88</time>
   <time name="total">   57.62   57.67</time>
   <energy>
    <i name="e_fr_energy">   -279.41041861 </i>
    <i name="e_wo_entrp">   -279.41342307 </i>
    <i name="e_0_energy">   -279.41142010 </i>
   </energy>
  </scstep>
  <scstep>
   <time name="dav">   51.36   51.39</time>
   <time name="total">   53.14   53.18</time>
   <energy>
    <i name="e_fr_energy">   -279.41043105 </i>
    <i name="e_wo_entrp">   -279.41343526 </i>
    <i name="e_0_energy">   -279.41143245 </i>
   </energy>
  </scstep>
  <scstep>
   <time name="dav">   44.03   44.06</time>
   <time name="total">   45.82   45.86</time>
   <energy>
    <i name="e_fr_energy">   -279.41043712 </i>
    <i name="e_wo_entrp">   -279.41344142 </i>
    <i name="e_0_energy">   -279.41143856 </i>
   </energy>
  </scstep>
  <scstep>
   <time name="dav">   37.27   37.33</time>
   <time name="total">   39.06   39.14</time>
   <energy>
    <i name="e_fr_energy">   -279.41044033 </i>
    <i name="e_wo_entrp">   -279.41344396 </i>
    <i name="e_0_energy">   -279.41144154 </i>
   </energy>
  </scstep>
  <scstep>
   <time name="dav">   34.82   34.85</time>
   <time name="total">   36.61   36.64</time>
   <energy>
    <i name="e_fr_energy">   -279.41044334 </i>
    <i name="e_wo_entrp">   -279.41344718 </i>
    <i name="e_0_energy">   -279.41144462 </i>
   </energy>
  </scstep>
  <scstep>
   <time name="dav">   37.04   37.07</time>
   <time name="total">   38.84   38.86</time>
   <energy>
    <i name="e_fr_energy">   -279.41044643 </i>
    <i name="e_wo_entrp">   -279.41345031 </i>
    <i name="e_0_energy">   -279.41144772 </i>
   </energy>
  </scstep>
  <scstep>
   <time name="dav">   36.73   36.76</time>
   <time name="total">   38.52   38.55</time>
   <energy>
    <i name="e_fr_energy">   -279.41044921 </i>
    <i name="e_wo_entrp">   -279.41345307 </i>
    <i name="e_0_energy">   -279.41145050 </i>
   </energy>
  </scstep>
  <scstep>
   <time name="dav">   41.06   41.10</time>
   <time name="total">   41.18   41.22</time>
   <energy>
    <i name="alphaZ">   1798.62158330 </i>
    <i name="ewald"> -23055.74129003 </i>
    <i name="hartreedc">  -8904.97983525 </i>
    <i name="XCdc">   1415.67196597 </i>
    <i name="pawpsdc">  30711.27457238 </i>
    <i name="pawaedc"> -30852.67339159 </i>
    <i name="eentropy">      0.00300387 </i>
    <i name="bandstr">  -3572.44154958 </i>
    <i name="atom">  32180.85449221 </i>
    <i name="e_fr_energy">   -279.41044873 </i>
    <i name="e_wo_entrp">   -279.41345260 </i>
    <i name="e_0_energy">   -279.41145002 </i>
   </energy>
  </scstep>
  <structure>
   <crystal>
    <varray name="basis" >
     <v>       8.13012944       0.00127294      -0.00180827 </v>
     <v>       0.00127294       8.13012944       0.00180827 </v>
     <v>      -0.00184768       0.00184768       8.26420765 </v>
    </varray>
    <i name="volume">    546.25583229 </i>
    <varray name="rec_basis" >
     <v>       0.12299928      -0.00001926       0.00002750 </v>
     <v>      -0.00001926       0.12299928      -0.00002750 </v>
     <v>       0.00002692      -0.00002692       0.12100375 </v>
    </varray>
   </crystal>
   <varray name="positions" >
    <v>      -0.00645478      -0.00680477      -0.00713411 </v>
    <v>       0.50639296      -0.00639296      -0.00682045 </v>
    <v>       0.50680477       0.50645478      -0.00713411 </v>
    <v>      -0.00390506       0.50390506       0.52762145 </v>
    <v>      -0.00363606       0.50363606       0.00150005 </v>
    <v>      -0.00196809      -0.00179739       0.51772361 </v>
    <v>       0.50201164      -0.00201164       0.51785943 </v>
    <v>       0.50179739       0.50196809       0.51772361 </v>
    <v>       0.24997240       0.25002760       0.75064144 </v>
    <v>       0.75018102       0.74981898       0.75962788 </v>
    <v>       0.25054755       0.24945245       0.28876724 </v>
    <v>       0.25015756       0.74967574       0.26083338 </v>
    <v>       0.75032426       0.24984244       0.26083338 </v>
    <v>       0.24991057       0.74979680       0.75521325 </v>
    <v>       0.75020320       0.25008943       0.75521325 </v>
    <v>       0.74948807       0.75051193       0.26763387 </v>
    <v>       0.24871210       0.25128790       0.51388530 </v>
    <v>       0.25127729       0.75150020       0.02834211 </v>
    <v>       0.74849980       0.24872271       0.02834211 </v>
    <v>       0.24864849       0.74823475       0.50645589 </v>
    <v>       0.75176525       0.25135151       0.50645589 </v>
    <v>       0.74764861       0.75235139       0.03362387 </v>
    <v>       0.75223857       0.74776143       0.49976575 </v>
    <v>       0.25004914       0.00751799       0.25665696 </v>
    <v>       0.49248201       0.24995086       0.25665696 </v>
    <v>       0.24985093       0.49262833       0.25896539 </v>
    <v>       0.00737167       0.25014907       0.25896539 </v>
    <v>       0.25017075      -0.00476968       0.77722768 </v>
    <v>       0.50476968       0.24982925       0.77722768 </v>
    <v>       0.25025103       0.50543951       0.77148751 </v>
    <v>      -0.00543951       0.24974897       0.77148751 </v>
    <v>       0.74994091       0.00392187       0.26438940 </v>
    <v>       0.49607813       0.75005909       0.26438940 </v>
    <v>       0.74999748       0.49596720       0.26650302 </v>
    <v>       0.00403280       0.75000252       0.26650302 </v>
    <v>       0.74981709       0.01090134       0.77259938 </v>
    <v>       0.48909866       0.75018291       0.77259938 </v>
    <v>       0.74978744       0.48887573       0.76691214 </v>
    <v>       0.01112427       0.75021256       0.76691214 </v>
   </varray>
  </structure>
  <varray name="forces" >
   <v>      -0.13454361      -0.23020014      -0.17267280 </v>
   <v>       0.10794286      -0.10794286      -0.11582002 </v>
   <v>       0.23020014       0.13454361      -0.17267280 </v>
   <v>      -0.23221498       0.23221498       0.43268067 </v>
   <v>      -0.13747101       0.13747101      -0.11481405 </v>
   <v>      -0.12966909      -0.11404682       0.31410213 </v>
   <v>       0.13897747      -0.13897747       0.33321547 </v>
   <v>       0.11404682       0.12966909       0.31410213 </v>
   <v>       0.01982488      -0.01982488      -0.05354325 </v>
   <v>       0.01212539      -0.01212539      -0.07083718 </v>
   <v>       0.03392149      -0.03392149       2.88055526 </v>
   <v>      -0.05965248      -0.05060891       0.42719299 </v>
   <v>       0.05060891       0.05965248       0.42719299 </v>
   <v>       0.01642730       0.02377850      -0.39680746 </v>
   <v>      -0.02377850      -0.01642730      -0.39680746 </v>
   <v>       0.03281331      -0.03281331       1.00690153 </v>
   <v>      -0.00078805       0.00078805      -1.90975746 </v>
   <v>       0.01238848       0.00516085      -0.40622620 </v>
   <v>      -0.00516085      -0.01238848      -0.40622620 </v>
   <v>      -0.00353343      -0.03377598       0.09068137 </v>
   <v>       0.03377598       0.00353343       0.09068137 </v>
   <v>      -0.04593880       0.04593880      -0.57460954 </v>
   <v>       0.05108574      -0.05108574       0.02667177 </v>
   <v>      -0.00093734      -0.06142155      -0.46964539 </v>
   <v>       0.06142155       0.00093734      -0.46964539 </v>
   <v>      -0.00071413       0.11652821      -0.35009412 </v>
   <v>      -0.11652821       0.00071413      -0.35009412 </v>
   <v>      -0.00675326      -0.06754898       0.27410077 </v>
   <v>       0.06754898       0.00675326       0.27410077 </v>
   <v>      -0.00286689       0.08244815       0.07393450 </v>
   <v>      -0.08244815       0.00286689       0.07393450 </v>
   <v>      -0.00321849       0.09153712      -0.12836050 </v>
   <v>      -0.09153712       0.00321849      -0.12836050 </v>
   <v>       0.00320336      -0.10466914      -0.11117636 </v>
   <v>       0.10466914      -0.00320336      -0.11117636 </v>
   <v>      -0.00880218      -0.25682063       0.02361394 </v>
   <v>       0.25682063       0.00880218       0.02361394 </v>
   <v>       0.01404654       0.27529240      -0.08896447 </v>
   <v>      -0.27529240      -0.01404654      -0.08896447 </v>
  </varray>
  <varray name="stress" >
   <v>       8.04875324      -0.10198296      -0.23013388 </v>
   <v>      -0.10198296       8.04875324       0.23013388 </v>
   <v>      -0.23013417       0.23013417       2.70213734 </v>
  </varray>
  <energy>
   <i name="e_fr_energy">   -279.41044873 </i>
   <i name="e_wo_entrp">   -279.41145002 </i>
   <i name="e_0_energy">      0.00300387 </i>
  </energy>
  <time name="totalsc">  824.60  825.37</time>
 </calculation>
 <calculation>
  <scstep>
   <time name="dav">   44.80   44.83</time>
   <time name="total">   46.63   46.66</time>
   <energy>
    <i name="alphaZ">   1772.05838336 </i>
    <i name="ewald"> -22896.91504697 </i>
    <i name="hartreedc">  -8902.81717485 </i>
    <i name="XCdc">   1408.99664289 </i>
    <i name="pawpsdc">  30711.31154532 </i>
    <i name="pawaedc"> -30852.71071568 </i>
    <i name="eentropy">      0.00194240 </i>
    <i name="bandstr">  -3699.58256152 </i>
    <i name="atom">  32180.85449221 </i>
    <i name="e_fr_energy">   -278.80249282 </i>
    <i name="e_wo_entrp">   -278.80443523 </i>
    <i name="e_0_energy">   -278.80314029 </i>
   </energy>
  </scstep>
  <scstep>
   <time name="dav">   44.11   44.15</time>
   <time name="total">   45.91   45.94</time>
   <energy>
    <i name="e_fr_energy">   -279.35258302 </i>
    <i name="e_wo_entrp">   -279.35443979 </i>
    <i name="e_0_energy">   -279.35320195 </i>
   </energy>
  </scstep>
  <scstep>
   <time name="dav">   51.19   51.23</time>
   <time name="total">   53.00   53.04</time>
   <energy>
    <i name="e_fr_energy">   -279.31699085 </i>
    <i name="e_wo_entrp">   -279.31957417 </i>
    <i name="e_0_energy">   -279.31785195 </i>
   </energy>
  </scstep>
  <scstep>
   <time name="dav">   57.91   57.96</time>
   <time name="total">   59.69   59.74</time>
   <energy>
    <i name="e_fr_energy">   -279.26051028 </i>
    <i name="e_wo_entrp">   -279.26302284 </i>
    <i name="e_0_energy">   -279.26134780 </i>
   </energy>
  </scstep>
  <scstep>
   <time name="dav">   55.40   55.44</time>
   <time name="total">   57.17   57.22</time>
   <energy>
    <i name="e_fr_energy">   -279.23811617 </i>
    <i name="e_wo_entrp">   -279.24066354 </i>
    <i name="e_0_energy">   -279.23896529 </i>
   </energy>
  </scstep>
  <scstep>
   <time name="dav">   60.39   60.43</time>
   <time name="total">   62.16   62.20</time>
   <energy>
    <i name="e_fr_energy">   -279.23957342 </i>
    <i name="e_wo_entrp">   -279.24210854 </i>
    <i name="e_0_energy">   -279.24041846 </i>
   </energy>
  </scstep>
  <scstep>
   <time name="dav">   62.01   62.05</time>
   <time name="total">   63.80   63.85</time>
   <energy>
    <i name="e_fr_energy">   -279.24025204 </i>
    <i name="e_wo_entrp">   -279.24277460 </i>
    <i name="e_0_energy">   -279.24109290 </i>
   </energy>
  </scstep>
  <scstep>
   <time name="dav">   55.25   55.29</time>
   <time name="total">   57.03   57.08</time>
   <energy>
    <i name="e_fr_energy">   -279.24048750 </i>
    <i name="e_wo_entrp">   -279.24300822 </i>
[...]
       <r>    7.6793    0.0000 </r>
       <r>    7.8407    0.0000 </r>
       <r>    8.6385    0.0000 </r>
       <r>    8.9070    0.0000 </r>
       <r>    9.2054    0.0000 </r>
       <r>    9.5575    0.0000 </r>
       <r>    9.6680    0.0000 </r>
       <r>    9.7613    0.0000 </r>
       <r>    9.8910    0.0000 </r>
       <r>   10.0686    0.0000 </r>
       <r>   10.1347    0.0000 </r>
       <r>   10.2182    0.0000 </r>
       <r>   10.2481    0.0000 </r>
       <r>   10.3733    0.0000 </r>
       <r>   10.4450    0.0000 </r>
       <r>   10.5060    0.0000 </r>
       <r>   10.6880    0.0000 </r>
       <r>   10.7923    0.0000 </r>
       <r>   10.8412    0.0000 </r>
       <r>   10.9530    0.0000 </r>
       <r>   10.9946    0.0000 </r>
       <r>   11.0732    0.0000 </r>
       <r>   11.2340    0.0000 </r>
       <r>   11.2868    0.0000 </r>
       <r>   11.3596    0.0000 </r>
       <r>   11.4221    0.0000 </r>
       <r>   11.4849    0.0000 </r>
       <r>   11.6096    0.0000 </r>
       <r>   11.6888    0.0000 </r>
       <r>   11.7577    0.0000 </r>
       <r>   11.8568    0.0000 </r>
       <r>   11.8870    0.0000 </r>
       <r>   12.0183    0.0000 </r>
      </set>
      <set comment="kpoint 19">
       <r>  -59.0991    1.0000 </r>
       <r>  -58.8116    1.0000 </r>
       <r>  -58.7989    1.0000 </r>
       <r>  -58.4163    1.0000 </r>
       <r>  -58.3384    1.0000 </r>
       <r>  -58.3356    1.0000 </r>
       <r>  -52.6766    1.0000 </r>
       <r>  -52.6765    1.0000 </r>
       <r>  -52.6697    1.0000 </r>
       <r>  -52.2602    1.0000 </r>
       <r>  -51.7900    1.0000 </r>
       <r>  -51.7900    1.0000 </r>
       <r>  -29.0955    1.0000 </r>
       <r>  -28.7571    1.0000 </r>
       <r>  -28.7546    1.0000 </r>
       <r>  -28.7376    1.0000 </r>
       <r>  -28.7373    1.0000 </r>
       <r>  -28.7214    1.0000 </r>
       <r>  -28.7199    1.0000 </r>
       <r>  -28.7123    1.0000 </r>
       <r>  -28.7083    1.0000 </r>
       <r>  -28.3651    1.0000 </r>
       <r>  -28.3612    1.0000 </r>
       <r>  -28.2952    1.0000 </r>
       <r>  -27.9317    1.0000 </r>
       <r>  -27.9314    1.0000 </r>
       <r>  -27.8756    1.0000 </r>
       <r>  -27.8740    1.0000 </r>
       <r>  -27.8631    1.0000 </r>
       <r>  -27.8618    1.0000 </r>
       <r>  -24.5275    1.0000 </r>
       <r>  -24.4686    1.0000 </r>
       <r>  -24.4681    1.0000 </r>
       <r>  -24.3907    1.0000 </r>
       <r>  -21.8900    1.0000 </r>
       <r>  -21.7766    1.0000 </r>
       <r>  -21.7724    1.0000 </r>
       <r>  -21.6608    1.0000 </r>
       <r>  -14.2374    1.0000 </r>
       <r>  -13.9906    1.0000 </r>
       <r>  -13.9041    1.0000 </r>
       <r>  -13.8281    1.0000 </r>
       <r>  -13.6806    1.0000 </r>
       <r>  -13.6521    1.0000 </r>
       <r>  -13.5635    1.0000 </r>
       <r>  -13.4980    1.0000 </r>
       <r>  -13.4882    1.0000 </r>
       <r>  -13.3950    1.0000 </r>
       <r>  -13.2929    1.0000 </r>
       <r>  -13.2663    1.0000 </r>
       <r>  -13.2628    1.0000 </r>
       <r>  -13.1066    1.0000 </r>
       <r>  -13.0163    1.0000 </r>
       <r>  -12.9588    1.0000 </r>
       <r>  -12.8700    1.0000 </r>
       <r>  -12.7775    1.0000 </r>
       <r>  -12.5969    1.0000 </r>
       <r>  -12.4929    1.0000 </r>
       <r>  -12.2447    1.0000 </r>
       <r>  -12.1607    1.0000 </r>
       <r>  -12.1584    1.0000 </r>
       <r>   -8.1053    1.0000 </r>
       <r>   -8.0905    1.0000 </r>
       <r>   -8.0780    1.0000 </r>
       <r>   -8.0665    1.0000 </r>
       <r>   -8.0424    1.0000 </r>
       <r>   -8.0297    1.0000 </r>
       <r>   -8.0238    1.0000 </r>
       <r>   -8.0114    1.0000 </r>
       <r>   -7.9727    1.0000 </r>
       <r>   -7.9403    1.0000 </r>
       <r>   -7.9329    1.0000 </r>
       <r>   -7.8730    1.0000 </r>
       <r>   -7.2873    1.0000 </r>
       <r>   -7.2734    1.0000 </r>
       <r>   -7.1886    1.0000 </r>
       <r>   -7.1768    1.0000 </r>
       <r>   -7.1310    1.0000 </r>
       <r>   -7.0288    1.0000 </r>
       <r>   -6.9468    1.0000 </r>
       <r>   -6.9462    1.0000 </r>
       <r>   -6.8903    1.0000 </r>
       <r>   -6.8497    1.0000 </r>
       <r>   -6.7992    1.0000 </r>
       <r>   -6.7744    1.0000 </r>
       <r>   -1.7199    1.0000 </r>
       <r>   -1.5861    1.0000 </r>
       <r>   -1.4347    1.0000 </r>
       <r>   -1.3296    1.0000 </r>
       <r>   -1.3035    1.0000 </r>
       <r>   -1.0544    1.0000 </r>
       <r>   -1.0014    1.0000 </r>
       <r>   -0.9775    1.0000 </r>
       <r>   -0.9137    1.0000 </r>
       <r>   -0.8049    1.0000 </r>
       <r>   -0.7376    1.0000 </r>
       <r>   -0.6102    1.0000 </r>
       <r>   -0.5150    1.0000 </r>
       <r>   -0.5072    1.0000 </r>
       <r>   -0.4073    1.0000 </r>
       <r>   -0.3856    1.0000 </r>
       <r>   -0.3354    1.0000 </r>
       <r>   -0.3245    1.0000 </r>
       <r>   -0.2850    1.0000 </r>
       <r>   -0.2397    1.0000 </r>
       <r>   -0.2346    1.0000 </r>
       <r>   -0.1432    1.0000 </r>
       <r>   -0.1116    1.0000 </r>
       <r>   -0.0660    1.0000 </r>
       <r>    0.0371    1.0000 </r>
       <r>    0.0697    1.0000 </r>
       <r>    0.1126    1.0000 </r>
       <r>    0.1774    1.0000 </r>
       <r>    0.2141    1.0000 </r>
       <r>    0.3007    1.0000 </r>
       <r>    0.3424    1.0000 </r>
       <r>    0.3446    1.0000 </r>
       <r>    0.5068    1.0000 </r>
       <r>    0.5171    1.0000 </r>
       <r>    0.5308    1.0000 </r>
       <r>    0.6026    1.0000 </r>
       <r>    0.6234    1.0000 </r>
       <r>    0.6858    1.0000 </r>
       <r>    0.6956    1.0000 </r>
       <r>    0.8241    1.0000 </r>
       <r>    0.8685    1.0000 </r>
       <r>    0.9183    1.0000 </r>
       <r>    0.9394    1.0000 </r>
       <r>    1.0688    1.0000 </r>
       <r>    1.4110    1.0000 </r>
       <r>    1.4665    1.0000 </r>
       <r>    1.5129    1.0000 </r>
       <r>    1.6379    1.0000 </r>
       <r>    1.6551    1.0000 </r>
       <r>    1.6745    1.0000 </r>
       <r>    1.7558    1.0000 </r>
       <r>    1.8215    1.0000 </r>
       <r>    1.8575    1.0000 </r>
       <r>    2.0357    1.0000 </r>
       <r>    2.0716    1.0000 </r>
       <r>    2.1264    1.0000 </r>
       <r>    2.1907    1.0000 </r>
       <r>    2.1918    1.0000 </r>
       <r>    2.2856    1.0000 </r>
       <r>    2.2970    1.0000 </r>
       <r>    2.3560    1.0000 </r>
       <r>    2.3959    1.0000 </r>
       <r>    2.3985    1.0000 </r>
       <r>    2.4513    1.0000 </r>
       <r>    2.5156    1.0000 </r>
       <r>    2.5502    1.0000 </r>
       <r>    2.5715    1.0000 </r>
       <r>    2.6324    1.0000 </r>
       <r>    2.6558    1.0000 </r>
       <r>    2.6663    1.0000 </r>
       <r>    2.7609    1.0000 </r>
       <r>    2.8131    1.0000 </r>
       <r>    2.8752    1.0000 </r>
       <r>    3.1760    1.0000 </r>
       <r>    3.2247    1.0000 </r>
       <r>    5.5872   -0.0000 </r>
       <r>    5.8988   -0.0000 </r>
       <r>    5.9415   -0.0000 </r>
       <r>    6.2039   -0.0000 </r>
       <r>    6.4797    0.0000 </r>
       <r>    6.4879    0.0000 </r>
       <r>    6.5899    0.0000 </r>
       <r>    6.6024    0.0000 </r>
       <r>    6.6530    0.0000 </r>
       <r>    6.7303    0.0000 </r>
       <r>    6.8845    0.0000 </r>
       <r>    7.0342    0.0000 </r>
       <r>    7.0555    0.0000 </r>
       <r>    7.0863    0.0000 </r>
       <r>    7.2075    0.0000 </r>
       <r>    7.2839    0.0000 </r>
       <r>    7.2949    0.0000 </r>
       <r>    7.3795    0.0000 </r>
       <r>    7.4372    0.0000 </r>
       <r>    7.5761    0.0000 </r>
       <r>    7.6012    0.0000 </r>
       <r>    7.6203    0.0000 </r>
       <r>    7.7328    0.0000 </r>
       <r>    9.3838    0.0000 </r>
       <r>    9.4948    0.0000 </r>
       <r>    9.7051    0.0000 </r>
       <r>    9.7249    0.0000 </r>
       <r>    9.7956    0.0000 </r>
       <r>    9.9738    0.0000 </r>
       <r>   10.0064    0.0000 </r>
       <r>   10.0986    0.0000 </r>
       <r>   10.2327    0.0000 </r>
       <r>   10.3072    0.0000 </r>
       <r>   10.3464    0.0000 </r>
       <r>   10.3799    0.0000 </r>
       <r>   10.4318    0.0000 </r>
       <r>   10.5642    0.0000 </r>
       <r>   10.7095    0.0000 </r>
       <r>   10.7644    0.0000 </r>
       <r>   10.8096    0.0000 </r>
       <r>   10.8406    0.0000 </r>
       <r>   10.9813    0.0000 </r>
       <r>   11.1175    0.0000 </r>
       <r>   11.1585    0.0000 </r>
       <r>   11.2674    0.0000 </r>
       <r>   11.2680    0.0000 </r>
       <r>   11.3574    0.0000 </r>
       <r>   11.4667    0.0000 </r>
       <r>   11.4676    0.0000 </r>
       <r>   11.5510    0.0000 </r>
       <r>   11.7051    0.0000 </r>
       <r>   11.7308    0.0000 </r>
       <r>   11.7894    0.0000 </r>
       <r>   11.9794    0.0000 </r>
      </set>
      <set comment="kpoint 20">
       <r>  -59.0991    1.0000 </r>
       <r>  -58.8116    1.0000 </r>
       <r>  -58.7989    1.0000 </r>
       <r>  -58.4163    1.0000 </r>
       <r>  -58.3385    1.0000 </r>
       <r>  -58.3357    1.0000 </r>
       <r>  -52.6767    1.0000 </r>
       <r>  -52.6765    1.0000 </r>
       <r>  -52.6695    1.0000 </r>
       <r>  -52.2602    1.0000 </r>
       <r>  -51.7900    1.0000 </r>
       <r>  -51.7900    1.0000 </r>
       <r>  -29.0953    1.0000 </r>
       <r>  -28.7812    1.0000 </r>
       <r>  -28.7782    1.0000 </r>
       <r>  -28.7414    1.0000 </r>
       <r>  -28.7414    1.0000 </r>
       <r>  -28.7219    1.0000 </r>
       <r>  -28.7211    1.0000 </r>
       <r>  -28.6881    1.0000 </r>
       <r>  -28.6840    1.0000 </r>
       <r>  -28.3595    1.0000 </r>
       <r>  -28.3555    1.0000 </r>
       <r>  -28.2950    1.0000 </r>
       <r>  -27.9320    1.0000 </r>
       <r>  -27.9311    1.0000 </r>
       <r>  -27.8750    1.0000 </r>
       <r>  -27.8746    1.0000 </r>
       <r>  -27.8625    1.0000 </r>
       <r>  -27.8624    1.0000 </r>
       <r>  -24.5284    1.0000 </r>
       <r>  -24.4682    1.0000 </r>
       <r>  -24.4676    1.0000 </r>
       <r>  -24.3908    1.0000 </r>
       <r>  -21.8899    1.0000 </r>
       <r>  -21.7934    1.0000 </r>
       <r>  -21.7677    1.0000 </r>
       <r>  -21.6477    1.0000 </r>
       <r>  -14.3193    1.0000 </r>
       <r>  -14.1531    1.0000 </r>
       <r>  -14.0828    1.0000 </r>
       <r>  -14.0011    1.0000 </r>
       <r>  -13.8134    1.0000 </r>
       <r>  -13.6218    1.0000 </r>
       <r>  -13.5874    1.0000 </r>
       <r>  -13.3466    1.0000 </r>
       <r>  -13.3159    1.0000 </r>
       <r>  -13.2966    1.0000 </r>
       <r>  -13.2868    1.0000 </r>
       <r>  -13.1640    1.0000 </r>
       <r>  -13.0989    1.0000 </r>
       <r>  -13.0746    1.0000 </r>
       <r>  -13.0689    1.0000 </r>
       <r>  -12.9976    1.0000 </r>
       <r>  -12.8693    1.0000 </r>
       <r>  -12.6661    1.0000 </r>
       <r>  -12.3868    1.0000 </r>
       <r>  -12.3317    1.0000 </r>
       <r>  -12.2847    1.0000 </r>
       <r>  -12.2763    1.0000 </r>
       <r>  -12.2543    1.0000 </r>
       <r>   -8.1337    1.0000 </r>
       <r>   -8.1269    1.0000 </r>
       <r>   -8.0936    1.0000 </r>
       <r>   -8.0308    1.0000 </r>
       <r>   -8.0260    1.0000 </r>
       <r>   -8.0127    1.0000 </r>
       <r>   -8.0059    1.0000 </r>
       <r>   -7.9889    1.0000 </r>
       <r>   -7.9706    1.0000 </r>
       <r>   -7.9473    1.0000 </r>
       <r>   -7.9380    1.0000 </r>
       <r>   -7.8903    1.0000 </r>
       <r>   -7.2756    1.0000 </r>
       <r>   -7.2508    1.0000 </r>
       <r>   -7.1704    1.0000 </r>
       <r>   -7.1536    1.0000 </r>
       <r>   -7.1147    1.0000 </r>
       <r>   -7.0082    1.0000 </r>
       <r>   -6.9410    1.0000 </r>
       <r>   -6.9321    1.0000 </r>
       <r>   -6.9298    1.0000 </r>
       <r>   -6.8688    1.0000 </r>
       <r>   -6.8679    1.0000 </r>
       <r>   -6.7532    1.0000 </r>
       <r>   -2.1217    1.0000 </r>
       <r>   -2.0395    1.0000 </r>
       <r>   -1.9884    1.0000 </r>
       <r>   -1.9297    1.0000 </r>
       <r>   -1.6616    1.0000 </r>
       <r>   -1.1990    1.0000 </r>
       <r>   -1.1523    1.0000 </r>
       <r>   -1.0781    1.0000 </r>
       <r>   -1.0493    1.0000 </r>
       <r>   -1.0260    1.0000 </r>
       <r>   -0.9846    1.0000 </r>
       <r>   -0.7442    1.0000 </r>
       <r>   -0.6190    1.0000 </r>
       <r>   -0.6047    1.0000 </r>
       <r>   -0.3200    1.0000 </r>
       <r>   -0.2687    1.0000 </r>
       <r>   -0.2417    1.0000 </r>
       <r>   -0.1840    1.0000 </r>
       <r>   -0.0598    1.0000 </r>
       <r>   -0.0328    1.0000 </r>
       <r>    0.0135    1.0000 </r>
       <r>    0.0247    1.0000 </r>
       <r>    0.0864    1.0000 </r>
       <r>    0.1199    1.0000 </r>
       <r>    0.1667    1.0000 </r>
       <r>    0.2114    1.0000 </r>
       <r>    0.2341    1.0000 </r>
       <r>    0.2717    1.0000 </r>
       <r>    0.4338    1.0000 </r>
       <r>    0.5366    1.0000 </r>
       <r>    0.5468    1.0000 </r>
       <r>    0.5814    1.0000 </r>
       <r>    0.6067    1.0000 </r>
       <r>    0.6165    1.0000 </r>
       <r>    0.6776    1.0000 </r>
       <r>    0.6907    1.0000 </r>
       <r>    0.7242    1.0000 </r>
       <r>    0.8583    1.0000 </r>
       <r>    0.8663    1.0000 </r>
       <r>    1.0939    1.0000 </r>
       <r>    1.1602    1.0000 </r>
       <r>    1.2123    1.0000 </r>
       <r>    1.2213    1.0000 </r>
       <r>    1.2456    1.0000 </r>
       <r>    1.3042    1.0000 </r>
       <r>    1.3454    1.0000 </r>
       <r>    1.4885    1.0000 </r>
       <r>    1.6084    1.0000 </r>
       <r>    1.6201    1.0000 </r>
       <r>    1.6411    1.0000 </r>
       <r>    1.7483    1.0000 </r>
       <r>    1.8077    1.0000 </r>
       <r>    1.8716    1.0000 </r>
       <r>    1.8812    1.0000 </r>
       <r>    1.9922    1.0000 </r>
       <r>    2.0283    1.0000 </r>
       <r>    2.0513    1.0000 </r>
       <r>    2.0925    1.0000 </r>
       <r>    2.2301    1.0000 </r>
       <r>    2.2539    1.0000 </r>
       <r>    2.3009    1.0000 </r>
       <r>    2.3240    1.0000 </r>
       <r>    2.4166    1.0000 </r>
       <r>    2.4653    1.0000 </r>
       <r>    2.5336    1.0000 </r>
       <r>    2.5366    1.0000 </r>
       <r>    2.5901    1.0000 </r>
       <r>    2.6385    1.0000 </r>
       <r>    2.6637    1.0000 </r>
       <r>    2.7640    1.0000 </r>
       <r>    2.7747    1.0000 </r>
       <r>    2.9164    1.0000 </r>
       <r>    2.9695    1.0000 </r>
       <r>    3.2063    1.0000 </r>
       <r>    3.5556    1.0148 </r>
       <r>    4.8782   -0.0000 </r>
       <r>    5.7130   -0.0000 </r>
       <r>    6.0267   -0.0000 </r>
       <r>    6.0717   -0.0000 </r>
       <r>    6.3160   -0.0000 </r>
       <r>    6.3419   -0.0000 </r>
       <r>    6.5235    0.0000 </r>
       <r>    6.7368    0.0000 </r>
       <r>    6.8271    0.0000 </r>
       <r>    6.8730    0.0000 </r>
       <r>    6.9712    0.0000 </r>
       <r>    7.0461    0.0000 </r>
       <r>    7.2107    0.0000 </r>
       <r>    7.2326    0.0000 </r>
       <r>    7.3239    0.0000 </r>
       <r>    7.3387    0.0000 </r>
       <r>    7.3945    0.0000 </r>
       <r>    7.3988    0.0000 </r>
       <r>    7.4714    0.0000 </r>
       <r>    7.6788    0.0000 </r>
       <r>    7.6800    0.0000 </r>
       <r>    7.8241    0.0000 </r>
       <r>    8.0294    0.0000 </r>
       <r>    8.1737    0.0000 </r>
       <r>    8.7085    0.0000 </r>
       <r>    8.9092    0.0000 </r>
       <r>    9.0477    0.0000 </r>
       <r>    9.3911    0.0000 </r>
       <r>    9.5382    0.0000 </r>
       <r>    9.6217    0.0000 </r>
       <r>    9.8749    0.0000 </r>
       <r>   10.0054    0.0000 </r>
       <r>   10.0936    0.0000 </r>
       <r>   10.2031    0.0000 </r>
       <r>   10.2502    0.0000 </r>
       <r>   10.3627    0.0000 </r>
       <r>   10.4034    0.0000 </r>
       <r>   10.6372    0.0000 </r>
       <r>   10.8036    0.0000 </r>
       <r>   10.8630    0.0000 </r>
       <r>   10.9350    0.0000 </r>
       <r>   11.1002    0.0000 </r>
       <r>   11.1898    0.0000 </r>
       <r>   11.3595    0.0000 </r>
       <r>   11.3850    0.0000 </r>
       <r>   11.4414    0.0000 </r>
       <r>   11.5042    0.0000 </r>
       <r>   11.5711    0.0000 </r>
       <r>   11.6610    0.0000 </r>
       <r>   11.6834    0.0000 </r>
       <r>   11.8824    0.0000 </r>
       <r>   11.9923    0.0000 </r>
       <r>   12.0304    0.0000 </r>
       <r>   12.1371    0.0000 </r>
      </set>
     </set>
    </set>
   </array>
  </eigenvalues>
  <separator name="orbital magnetization" >
   <v name="MAGDIPOLOUT">      0.00000000      0.00000000      0.00000000</v>
  </separator>
 </calculation>
 <structure name="finalpos" >
  <crystal>
   <varray name="basis" >
    <v>       8.13101571       0.00040354      -0.00216455 </v>
    <v>       0.00040354       8.13101571       0.00216455 </v>
    <v>      -0.00218936       0.00218936       8.30343117 </v>
   </varray>
   <i name="volume">    548.96812451 </i>
   <varray name="rec_basis" >
    <v>       0.12298587      -0.00000611       0.00003243 </v>
    <v>      -0.00000611       0.12298587      -0.00003243 </v>
    <v>       0.00003206      -0.00003206       0.12043216 </v>
   </varray>
  </crystal>
  <varray name="positions" >
   <v>      -0.00844127      -0.01148256      -0.00781934 </v>
   <v>       0.50775082      -0.00775082      -0.00434933 </v>
   <v>       0.51148256       0.50844127      -0.00781934 </v>
   <v>      -0.00801447       0.50801447       0.53618897 </v>
   <v>      -0.00831837       0.50831837      -0.00267414 </v>
   <v>      -0.00730741      -0.00581823       0.52874116 </v>
   <v>       0.50891092      -0.00891092       0.53002735 </v>
   <v>       0.50581823       0.50730741       0.52874116 </v>
   <v>       0.25043917       0.24956083       0.75110861 </v>
   <v>       0.75010408       0.74989592       0.76006543 </v>
   <v>       0.25449705       0.24550295       0.29621514 </v>
   <v>       0.24758793       0.74346172       0.25907815 </v>
   <v>       0.75653828       0.25241207       0.25907815 </v>
   <v>       0.25123316       0.75072624       0.75208277 </v>
   <v>       0.74927376       0.24876684       0.75208277 </v>
   <v>       0.74699227       0.75300773       0.27104323 </v>
   <v>       0.25368204       0.24631796       0.51260667 </v>
   <v>       0.25192811       0.74876872       0.02564597 </v>
   <v>       0.75123128       0.24807189       0.02564597 </v>
   <v>       0.24861119       0.75055226       0.50656271 </v>
   <v>       0.74944774       0.25138881       0.50656271 </v>
   <v>       0.74712331       0.75287669       0.03226890 </v>
   <v>       0.75332094       0.74667906       0.50049885 </v>
   <v>       0.24765229       0.00981225       0.24568444 </v>
   <v>       0.49018775       0.25234771       0.24568444 </v>
   <v>       0.24787951       0.49446299       0.25690538 </v>
   <v>       0.00553701       0.25212049       0.25690538 </v>
   <v>       0.25006725      -0.00544512       0.78358584 </v>
   <v>       0.50544512       0.24993275       0.78358584 </v>
   <v>       0.25034976       0.50687159       0.76944087 </v>
   <v>      -0.00687159       0.24965024       0.76944087 </v>
   <v>       0.74852759       0.00429509       0.26439267 </v>
   <v>       0.49570491       0.75147241       0.26439267 </v>
   <v>       0.74868195       0.49632939       0.26546589 </v>
   <v>       0.00367061       0.75131805       0.26546589 </v>
   <v>       0.74897935       0.00867236       0.76930610 </v>
   <v>       0.49132764       0.75102065       0.76930610 </v>
   <v>       0.74930586       0.49033633       0.76265604 </v>
   <v>       0.00966367       0.75069414       0.76265604 </v>
  </varray>
 </structure>
</modeling>
