       N       E                     dE             d eps       ncg     rms          rms(c)
DAV:   1     0.339697066436E+04    0.33970E+04   -0.17299E+05 55968   0.150E+03
DAV:   2     0.609835380520E+02   -0.33360E+04   -0.31249E+04 64702   0.499E+02
DAV:   3    -0.313570630658E+03   -0.37455E+03   -0.36993E+03 81664   0.160E+02
DAV:   4    -0.332594816408E+03   -0.19024E+02   -0.18931E+02 85192   0.346E+01
DAV:   5    -0.333833612343E+03   -0.12388E+01   -0.12377E+01 96960   0.840E+00    0.618E+01
DAV:   6    -0.274729504289E+03    0.59104E+02   -0.35835E+02 76224   0.541E+01    0.351E+01
DAV:   7    -0.278413136999E+03   -0.36836E+01   -0.38267E+01 84728   0.234E+01    0.157E+01
DAV:   8    -0.279423908021E+03   -0.10108E+01   -0.52596E+00 79232   0.684E+00    0.110E+01
DAV:   9    -0.279700057951E+03   -0.27615E+00   -0.13646E+00 84064   0.560E+00    0.496E+00
DAV:  10    -0.279757932220E+03   -0.57874E-01   -0.39780E-01 75568   0.225E+00    0.155E+00
DAV:  11    -0.279773009119E+03   -0.15077E-01   -0.89697E-02 75760   0.113E+00    0.940E-01
DAV:  12    -0.279778274510E+03   -0.52654E-02   -0.19464E-02 84048   0.571E-01    0.388E-01
DAV:  13    -0.279780135038E+03   -0.18605E-02   -0.44436E-03 71448   0.304E-01    0.317E-01
DAV:  14    -0.279780508982E+03   -0.37394E-03   -0.14936E-03 74928   0.205E-01    0.102E-01
DAV:  15    -0.279780775315E+03   -0.26633E-03   -0.58361E-04 76816   0.795E-02    0.549E-02
DAV:  16    -0.279780859860E+03   -0.84545E-04   -0.11736E-04 71112   0.467E-02    0.277E-02
DAV:  17    -0.279780887279E+03   -0.27419E-04   -0.40665E-05 73832   0.250E-02    0.217E-02
DAV:  18    -0.279780908761E+03   -0.21482E-04   -0.16518E-05 71944   0.165E-02    0.158E-02
DAV:  19    -0.279780922975E+03   -0.14215E-04   -0.89808E-06 75960   0.138E-02    0.126E-02
DAV:  20    -0.279780934204E+03   -0.11228E-04   -0.54040E-06 77088   0.115E-02    0.107E-02
DAV:  21    -0.279780945304E+03   -0.11100E-04   -0.92603E-06 72176   0.189E-02    0.953E-03
DAV:  22    -0.279780955030E+03   -0.97260E-05   -0.85059E-06 77432   0.143E-02    0.792E-03
DAV:  23    -0.279780961114E+03   -0.60843E-05   -0.65712E-06 75384   0.162E-02    0.711E-03
DAV:  24    -0.279780968304E+03   -0.71902E-05   -0.54387E-06 69648   0.104E-02    0.548E-03
DAV:  25    -0.279780972100E+03   -0.37952E-05   -0.21529E-06 70424   0.845E-03    0.439E-03
DAV:  26    -0.279780973179E+03   -0.10797E-05   -0.24089E-06 72904   0.869E-03    0.387E-03
DAV:  27    -0.279780975099E+03   -0.19195E-05   -0.14386E-06 66208   0.536E-03    0.289E-03
DAV:  28    -0.279780976689E+03   -0.15904E-05   -0.76496E-07 56720   0.272E-03    0.209E-03
DAV:  29    -0.279780976805E+03   -0.11611E-06   -0.67592E-08 56504   0.110E-03    0.199E-03
DAV:  30    -0.279780976830E+03   -0.24527E-07   -0.27872E-08 53944   0.728E-04    0.195E-03
DAV:  31    -0.279780976851E+03   -0.20864E-07   -0.18323E-08 44848   0.427E-04    0.194E-03
DAV:  32    -0.279780976856E+03   -0.53769E-08   -0.34754E-09 37872   0.219E-04
   1 F= -.27978098E+03 E0= -.27978098E+03  d E =0.000000E+00  mag=     4.0000
 imaginary and real dielectric function
